    2
 MD step:           0 time   0.0000000000000000     
 H      0.00000000      0.00000000     -0.37000000      0.00533938     -0.00832081     -0.00771829
 H      0.00000000      0.00000000      0.37000000     -0.00990363      0.04168896      0.02749307
    2
 MD step:          50 time  0.12094421632525000     
 H      0.00064573     -0.00100636     -0.37093673      0.00533871     -0.00832079     -0.00774251
 H     -0.00119775      0.00504204      0.37332838     -0.00990296      0.04168894      0.02751729
    2
 MD step:         100 time  0.24188843265050000     
 H      0.00129138     -0.00201262     -0.37186546      0.00533783     -0.00831876     -0.00758524
 H     -0.00239542      0.01008399      0.37664875     -0.00990208      0.04168691      0.02736002
    2
 MD step:         150 time  0.36283264897575002     
 H      0.00193691     -0.00301837     -0.37276433      0.00533622     -0.00831189     -0.00724977
 H     -0.00359297      0.01512543      0.37993927     -0.00990047      0.04168003      0.02702455
    2
 MD step:         200 time  0.48377686530100000     
 H      0.00258219     -0.00402287     -0.37361216      0.00533369     -0.00829755     -0.00674234
 H     -0.00479027      0.02016561      0.38317874     -0.00989794      0.04166569      0.02651712
    2
 MD step:         250 time  0.60472108162625005     
 H      0.00322701     -0.00502506     -0.37438860      0.00532949     -0.00827336     -0.00607071
 H     -0.00598711      0.02520348      0.38634683     -0.00989375      0.04164151      0.02584549
    2
 MD step:         300 time  0.72566529795150003     
 H      0.00387107     -0.00602362     -0.37507435      0.00532189     -0.00823723     -0.00524409
 H     -0.00718319      0.03023773      0.38942423     -0.00988614      0.04160538      0.02501887
    2
 MD step:         350 time  0.84660951427675002     
 H      0.00451400     -0.00701699     -0.37565122      0.00530973     -0.00818732     -0.00427190
 H     -0.00837813      0.03526678      0.39239274     -0.00987398      0.04155547      0.02404668
    2
 MD step:         400 time  0.96755373060200001     
 H      0.00515535     -0.00800342     -0.37610225      0.00529363     -0.00812212     -0.00316504
 H     -0.00957150      0.04028890      0.39523541     -0.00985788      0.04149026      0.02293982
    2
 MD step:         450 time   1.0884979469272500     
 H      0.00579455     -0.00898097     -0.37641181      0.00527432     -0.00804037     -0.00193428
 H     -0.01076273      0.04530213      0.39793662     -0.00983857      0.04140852      0.02170906
    2
 MD step:         500 time   1.2094421632525001     
 H      0.00643098     -0.00994759     -0.37656561      0.00525047     -0.00794117     -0.00059141
 H     -0.01195118      0.05030443      0.40048207     -0.00981473      0.04130931      0.02036619
    2
 MD step:         550 time   1.3303863795777500     
 H      0.00706406     -0.01090112     -0.37655085      0.00521988     -0.00782391      0.00085129
 H     -0.01313628      0.05529365      0.40285895     -0.00978413      0.04119205      0.01892349
    2
 MD step:         600 time   1.4513305959030001     
 H      0.00769324     -0.01183936     -0.37635614      0.00518306     -0.00768821      0.00238216
 H     -0.01431747      0.06026757      0.40505588     -0.00974731      0.04105636      0.01739262
    2
 MD step:         650 time   1.5722748122282502     
 H      0.00831791     -0.01276007     -0.37597159      0.00514299     -0.00753408      0.00398831
 H     -0.01549417      0.06522396      0.40706298     -0.00970724      0.04090223      0.01578647
    2
 MD step:         700 time   1.6932190285535000     
 H      0.00893743     -0.01366103     -0.37538886      0.00510042     -0.00736169      0.00565782
 H     -0.01666570      0.07016061      0.40887189     -0.00966467      0.04072983      0.01411697
    2
 MD step:         750 time   1.8141632448787501     
 H      0.00955120     -0.01454006     -0.37460098      0.00505240     -0.00717151      0.00737839
 H     -0.01783150      0.07507532      0.41047566     -0.00961665      0.04053966      0.01239639
    2
 MD step:         800 time   1.9351074612040000     
 H      0.01015882     -0.01539505     -0.37360259      0.00499716     -0.00696437      0.00913693
 H     -0.01899113      0.07996600      0.41186892     -0.00956141      0.04033252      0.01063786
    2
 MD step:         850 time   2.0560516775292501     
 H      0.01075986     -0.01622401     -0.37238976      0.00493805     -0.00674112      0.01092242
 H     -0.02014420      0.08483064      0.41304774     -0.00950230      0.04010926      0.00885236
    2
 MD step:         900 time   2.1769958938545000     
 H      0.01135386     -0.01702505     -0.37096002      0.00487939     -0.00650309      0.01272168
 H     -0.02129022      0.08966737      0.41400963     -0.00944364      0.03987124      0.00705310
    2
 MD step:         950 time   2.2979401101797499     
 H      0.01194032     -0.01779649     -0.36931245      0.00481976     -0.00625171      0.01452302
 H     -0.02242869      0.09447449      0.41475371     -0.00938401      0.03961985      0.00525177
    2
 MD step:        1000 time   2.4188843265050002     
 H      0.01251892     -0.01853680     -0.36744748      0.00475424     -0.00598864      0.01631467
 H     -0.02355931      0.09925049      0.41528039     -0.00931849      0.03935679      0.00346011
    2
 MD step:        1050 time   2.5398285428302501     
 H      0.01308952     -0.01924469     -0.36536708      0.00468281     -0.00571604      0.01808330
 H     -0.02468194      0.10399406      0.41559163     -0.00924706      0.03908419      0.00169148
    2
 MD step:        1100 time   2.6607727591554999     
 H      0.01365196     -0.01991913     -0.36307463      0.00461150     -0.00543577      0.01981911
 H     -0.02579639      0.10870419      0.41569083     -0.00917575      0.03880391     -0.00004432
    2
 MD step:        1150 time   2.7817169754807503     
 H      0.01420592     -0.02055934     -0.36057490      0.00454410     -0.00515048      0.02150877
 H     -0.02690237      0.11338008      0.41558274     -0.00910836      0.03851863     -0.00173399
    2
 MD step:        1200 time   2.9026611918060001     
 H      0.01475119     -0.02116487     -0.35787422      0.00447657     -0.00486276      0.02314104
 H     -0.02799966      0.11802130      0.41527371     -0.00904083      0.03823091     -0.00336626
    2
 MD step:        1250 time   3.0236054081312500     
 H      0.01528780     -0.02173560     -0.35498014      0.00440405     -0.00457546      0.02470459
 H     -0.02908829      0.12262771      0.41477128     -0.00896831      0.03794361     -0.00492981
    2
 MD step:        1300 time   3.1445496244565003     
 H      0.01581595     -0.02227178     -0.35190179      0.00432944     -0.00429201      0.02618634
 H     -0.03016847      0.12719958      0.41408457     -0.00889369      0.03766015     -0.00641155
    2
 MD step:        1350 time   3.2654938407817502     
 H      0.01633575     -0.02277406     -0.34864961      0.00425981     -0.00401538      0.02757701
 H     -0.03124028      0.13173754      0.41322404     -0.00882406      0.03738352     -0.00780223
    2
 MD step:        1400 time   3.3864380571070001     
 H      0.01684726     -0.02324349     -0.34523540      0.00419696     -0.00374953      0.02886368
 H     -0.03230381      0.13624265      0.41220148     -0.00876121      0.03711767     -0.00908890
    2
 MD step:        1450 time   3.5073822734322500     
 H      0.01735083     -0.02368161     -0.34167246      0.00413614     -0.00349828      0.03003546
 H     -0.03335940      0.14071646      0.41103018     -0.00870039      0.03686643     -0.01026068
    2
 MD step:        1500 time   3.6283264897575003     
 H      0.01784711     -0.02409043     -0.33797523      0.00407569     -0.00326561      0.03108213
 H     -0.03440770      0.14516096      0.40972459     -0.00863994      0.03663376     -0.01130735
    2
 MD step:        1550 time   3.7492707060827501     
 H      0.01833692     -0.02447246     -0.33415957      0.00402190     -0.00305608      0.03199203
 H     -0.03544953      0.14957868      0.40830058     -0.00858615      0.03642423     -0.01221725
    2
 MD step:        1600 time   3.8702149224080000     
 H      0.01882111     -0.02483075     -0.33024254      0.00398121     -0.00287368      0.03275725
 H     -0.03648574      0.15397265      0.40677519     -0.00854546      0.03624182     -0.01298247
    2
 MD step:        1650 time   3.9911591387332503     
 H      0.01930068     -0.02516885     -0.32624219      0.00395286     -0.00272306      0.03336809
 H     -0.03751733      0.15834644      0.40516649     -0.00851711      0.03609121     -0.01359331
    2
 MD step:        1700 time   4.1121033550585002     
 H      0.01977702     -0.02549090     -0.32217776      0.00393263     -0.00260884      0.03381628
 H     -0.03854569      0.16270417      0.40349371     -0.00849689      0.03597699     -0.01404150
    2
 MD step:        1750 time   4.2330475713837501     
 H      0.02025178     -0.02580153     -0.31806918      0.00392180     -0.00253496      0.03409700
 H     -0.03957247      0.16705048      0.40177677     -0.00848605      0.03590311     -0.01432222
    2
 MD step:        1800 time   4.3539917877090000     
 H      0.02072665     -0.02610589     -0.31393710      0.00392720     -0.00250596      0.03420400
 H     -0.04059936      0.17139053      0.40003633     -0.00849145      0.03587411     -0.01442922
    2
 MD step:        1850 time   4.4749360040342498     
 H      0.02120321     -0.02640962     -0.30980263      0.00395164     -0.00252506      0.03413650
 H     -0.04162794      0.17572994      0.39829352     -0.00851589      0.03589320     -0.01436172
    2
 MD step:        1900 time   4.5958802203594997     
 H      0.02168314     -0.02671875     -0.30568697      0.00399100     -0.00259583      0.03389289
 H     -0.04265989      0.18007476      0.39656950     -0.00855525      0.03596398     -0.01411811
    2
 MD step:        1950 time   4.7168244366847505     
 H      0.02216843     -0.02703973     -0.30161143      0.00404180     -0.00272131      0.03347369
 H     -0.04369720      0.18443142      0.39488560     -0.00860605      0.03608946     -0.01369891
    2
 MD step:        2000 time   4.8377686530100004     
 H      0.02266117     -0.02737929     -0.29759696      0.00410793     -0.00290341      0.03288339
 H     -0.04474196      0.18880666      0.39326278     -0.00867218      0.03627156     -0.01310861
    2
 MD step:        2050 time   4.9587128693352502     
 H      0.02316348     -0.02774440     -0.29366405      0.00419640     -0.00314409      0.03212608
 H     -0.04579629      0.19320745      0.39172151     -0.00876065      0.03651224     -0.01235130
    2
 MD step:        2100 time   5.0796570856605001     
 H      0.02367755     -0.02814218     -0.28983240      0.00430764     -0.00344360      0.03121098
 H     -0.04686238      0.19764092      0.39028151     -0.00887189      0.03681175     -0.01143619
    2
 MD step:        2150 time   5.2006013019857500     
 H      0.02420573     -0.02857971     -0.28612038      0.00443594     -0.00380128      0.03014947
 H     -0.04794258      0.20211414      0.38896114     -0.00900019      0.03716942     -0.01037468
    2
 MD step:        2200 time   5.3215455183109999     
 H      0.02475045     -0.02906395     -0.28254499      0.00457817     -0.00421559      0.02895461
 H     -0.04903932      0.20663407      0.38777739     -0.00914242      0.03758373     -0.00917983
    2
 MD step:        2250 time   5.4424897346362506     
 H      0.02531386     -0.02960153     -0.27912120      0.00473690     -0.00468260      0.02764533
 H     -0.05015474      0.21120733      0.38674524     -0.00930115      0.03805074     -0.00787055
    2
 MD step:        2300 time   5.5634339509615005     
 H      0.02589767     -0.03019859     -0.27586182      0.00491451     -0.00519846      0.02623882
 H     -0.05129058      0.21584007      0.38587752     -0.00947876      0.03856660     -0.00646404
    2
 MD step:        2350 time   5.6843781672867504     
 H      0.02650342     -0.03086071     -0.27277739      0.00510658     -0.00575733      0.02475630
 H     -0.05244834      0.22053788      0.38518473     -0.00967084      0.03912548     -0.00498152
    2
 MD step:        2400 time   5.8053223836120003     
 H      0.02713267     -0.03159269     -0.26987575      0.00530683     -0.00635257      0.02321941
 H     -0.05362962      0.22530554      0.38467473     -0.00987108      0.03972071     -0.00344463
    2
 MD step:        2450 time   5.9262665999372501     
 H      0.02778700     -0.03239851     -0.26716223      0.00551485     -0.00697700      0.02164942
 H     -0.05483597      0.23014704      0.38435286     -0.01007910      0.04034515     -0.00187464
    2
 MD step:        2500 time   6.0472108162625000     
 H      0.02846757     -0.03328112     -0.26463928      0.00573353     -0.00762091      0.02007223
 H     -0.05606856      0.23506534      0.38422155     -0.01029778      0.04098906     -0.00029745
    2
 MD step:        2550 time   6.1681550325877499     
 H      0.02917493     -0.03424233     -0.26230635      0.00596055     -0.00827497      0.01851078
 H     -0.05732794      0.24006223      0.38428027     -0.01052480      0.04164311      0.00126400
    2
 MD step:        2600 time   6.2890992489130007     
 H      0.02990917     -0.03528272     -0.26016011      0.00618585     -0.00892844      0.01698955
 H     -0.05861420      0.24513831      0.38452568     -0.01075010      0.04229658      0.00278523
    2
 MD step:        2650 time   6.4100434652382505     
 H      0.03067010     -0.03640155     -0.25819423      0.00640167     -0.00957046      0.01553148
 H     -0.05992715      0.25029282      0.38495144     -0.01096592      0.04293860      0.00424330
    2
 MD step:        2700 time   6.5309876815635004     
 H      0.03145722     -0.03759686     -0.25639995      0.00661011     -0.01019145      0.01415494
 H     -0.06126629      0.25552381      0.38554880     -0.01117436      0.04355960      0.00561984
    2
 MD step:        2750 time   6.6519318978887503     
 H      0.03226961     -0.03886545     -0.25476621      0.00681534     -0.01078050      0.01287985
 H     -0.06263069      0.26082809      0.38630671     -0.01137959      0.04414865      0.00689493
    2
 MD step:        2800 time   6.7728761142140002     
 H      0.03310592     -0.04020287     -0.25327976      0.00701331     -0.01132827      0.01172138
 H     -0.06401902      0.26620120      0.38721190     -0.01157756      0.04469642      0.00805340
    2
 MD step:        2850 time   6.8938203305392500     
 H      0.03396464     -0.04160360     -0.25192570      0.00719282     -0.01182548      0.01069351
 H     -0.06542977      0.27163761      0.38824949     -0.01175707      0.04519363      0.00908128
    2
 MD step:        2900 time   7.0147645468644999     
 H      0.03484395     -0.04306089     -0.25068730      0.00734797     -0.01226240      0.00981015
 H     -0.06686109      0.27713058      0.38940273     -0.01191222      0.04563055      0.00996464
    2
 MD step:        2950 time   7.1357087631897507     
 H      0.03574150     -0.04456704     -0.24954665      0.00748349     -0.01263249      0.00907801
 H     -0.06831066      0.28267242      0.39065373     -0.01204774      0.04600064      0.01069677
    2
 MD step:        3000 time   7.2566529795150005     
 H      0.03665440     -0.04611352     -0.24848496      0.00760232     -0.01292806      0.00850561
 H     -0.06977558      0.28825459      0.39198369     -0.01216657      0.04629620      0.01126918
    2
 MD step:        3050 time   7.3775971958402504     
 H      0.03757958     -0.04769101     -0.24748273      0.00769807     -0.01314469      0.00809467
 H     -0.07125278      0.29386775      0.39337311     -0.01226233      0.04651284      0.01168011
    2
 MD step:        3100 time   7.4985414121655003     
 H      0.03851420     -0.04928979     -0.24652052      0.00776236     -0.01327938      0.00784423
 H     -0.07273943      0.29950222      0.39480254     -0.01232661      0.04664753      0.01193055
    2
 MD step:        3150 time   7.6194856284907502     
 H      0.03945552     -0.05089966     -0.24557878      0.00779722     -0.01332807      0.00775532
 H     -0.07423277      0.30514778      0.39625244     -0.01236147      0.04669622      0.01201946
    2
 MD step:        3200 time   7.7404298448160000     
 H      0.04040048     -0.05251021     -0.24463831      0.00781308     -0.01329066      0.00782187
 H     -0.07572974      0.31079401      0.39770362     -0.01237734      0.04665881      0.01195291
    2
 MD step:        3250 time   7.8613740611412499     
 H      0.04134571     -0.05411093     -0.24368052      0.00781023     -0.01316479      0.00804206
 H     -0.07722699      0.31643042      0.39913748     -0.01237449      0.04653294      0.01173272
    2
 MD step:        3300 time   7.9823182774665007     
 H      0.04228787     -0.05569109     -0.24268711      0.00777716     -0.01295080      0.00840961
 H     -0.07872117      0.32204625      0.40053571     -0.01234141      0.04631895      0.01136517
    2
 MD step:        3350 time   8.1032624937917497     
 H      0.04322401     -0.05724019     -0.24164088      0.00770761     -0.01265132      0.00891472
 H     -0.08020933      0.32763104      0.40188112     -0.01227186      0.04601946      0.01086006
    2
 MD step:        3400 time   8.2242067101170004     
 H      0.04415112     -0.05874780     -0.24052532      0.00761063     -0.01226569      0.00955354
 H     -0.08168847      0.33317434      0.40315722     -0.01217488      0.04563384      0.01022124
    2
 MD step:        3450 time   8.3451509264422494     
 H      0.04506589     -0.06020380     -0.23932505      0.00749949     -0.01179896      0.01031319
 H     -0.08315525      0.33866603      0.40434859     -0.01206374      0.04516711      0.00946159
    2
 MD step:        3500 time   8.4660951427675002     
 H      0.04596506     -0.06159865     -0.23802612      0.00736989     -0.01125366      0.01118540
 H     -0.08460644      0.34409656      0.40544130     -0.01193415      0.04462180      0.00858938
    2
 MD step:        3550 time   8.5870393590927510     
 H      0.04684589     -0.06292300     -0.23661541      0.00720855     -0.01063414      0.01215951
 H     -0.08603929      0.34945659      0.40642224     -0.01177280      0.04400229      0.00761527
    2
 MD step:        3600 time   8.7079835754179999     
 H      0.04770626     -0.06416830     -0.23508147      0.00701781     -0.00994798      0.01322038
 H     -0.08745168      0.35473758      0.40727995     -0.01158206      0.04331613      0.00655440
    2
 MD step:        3650 time   8.8289277917432507     
 H      0.04854398     -0.06532656     -0.23341409      0.00681491     -0.00919612      0.01436370
 H     -0.08884142      0.35993152      0.40800421     -0.01137916      0.04256427      0.00541108
    2
 MD step:        3700 time   8.9498720080684997     
 H      0.04935657     -0.06639032     -0.23160420      0.00661022     -0.00838659      0.01557469
 H     -0.09020603      0.36503096      0.40858596     -0.01117448      0.04175474      0.00420009
    2
 MD step:        3750 time   9.0708162243937505     
 H      0.05014197     -0.06735316     -0.22964457      0.00639040     -0.00752549      0.01684211
 H     -0.09154345      0.37002949      0.40901798     -0.01095465      0.04089364      0.00293267
    2
 MD step:        3800 time   9.1917604407189994     
 H      0.05089883     -0.06820891     -0.22752857      0.00614163     -0.00661738      0.01815751
 H     -0.09285233      0.37492092      0.40929363     -0.01070588      0.03998553      0.00161728
    2
 MD step:        3850 time   9.3127046570442502     
 H      0.05162623     -0.06895237     -0.22525123      0.00587705     -0.00567197      0.01950542
 H     -0.09413174      0.37970007      0.40940793     -0.01044130      0.03904011      0.00026936
    2
 MD step:        3900 time   9.4336488733695010     
 H      0.05232283     -0.06957912     -0.22280880      0.00561724     -0.00468855      0.02088567
 H     -0.09538037      0.38436250      0.40935715     -0.01018149      0.03805669     -0.00111088
    2
 MD step:        3950 time   9.5545930896947500     
 H      0.05298702     -0.07008520     -0.22019833      0.00536325     -0.00367672      0.02228381
 H     -0.09659658      0.38890427      0.40913832     -0.00992750      0.03704486     -0.00250903
    2
 MD step:        4000 time   9.6755373060200007     
 H      0.05361800     -0.07046786     -0.21741863      0.00509399     -0.00264487      0.02368765
 H     -0.09777958      0.39332261      0.40875027     -0.00965824      0.03601302     -0.00391287
    2
 MD step:        4050 time   9.7964815223452497     
 H      0.05421562     -0.07072452     -0.21446882      0.00480148     -0.00159618      0.02509264
 H     -0.09892922      0.39761495      0.40819211     -0.00936574      0.03496432     -0.00531786
    2
 MD step:        4100 time   9.9174257386705005     
 H      0.05477981     -0.07085368     -0.21134951      0.00450939     -0.00054109      0.02648471
 H     -0.10004542      0.40177979      0.40746444     -0.00907364      0.03390923     -0.00670993
    2
 MD step:        4150 time   10.038369954995749     
 H      0.05530996     -0.07085475     -0.20806248      0.00423480      0.00052169      0.02786562
 H     -0.10112759      0.40581655      0.40656906     -0.00879905      0.03284646     -0.00809084
    2
 MD step:        4200 time   10.159314171321000     
 H      0.05580544     -0.07072752     -0.20461002      0.00396764      0.00158115      0.02922135
 H     -0.10217509      0.40972501      0.40550824     -0.00853189      0.03178699     -0.00944657
    2
 MD step:        4250 time   10.280258387646251     
 H      0.05626671     -0.07047310     -0.20099604      0.00368674      0.00262720      0.03053961
 H     -0.10318839      0.41350627      0.40428590     -0.00825099      0.03074094     -0.01076482
    2
 MD step:        4300 time   10.401202603971500     
 H      0.05669468     -0.07009284     -0.19722466      0.00339482      0.00365814      0.03181916
 H     -0.10416837      0.41716170      0.40290617     -0.00795907      0.02971000     -0.01204438
    2
 MD step:        4350 time   10.522146820296751     
 H      0.05708998     -0.06958922     -0.19330133      0.00311978      0.00466270      0.03304707
 H     -0.10511569      0.42069376      0.40137449     -0.00768403      0.02870545     -0.01327229
    2
 MD step:        4400 time   10.643091036622000     
 H      0.05745293     -0.06896578     -0.18923266      0.00286933      0.00564015      0.03422364
 H     -0.10603067      0.42410601      0.39969746     -0.00743358      0.02772800     -0.01444886
    2
 MD step:        4450 time   10.764035252947250     
 H      0.05778419     -0.06822647     -0.18502558      0.00262665      0.00657880      0.03533622
 H     -0.10691395      0.42740238      0.39788202     -0.00719090      0.02678935     -0.01556144
    2
 MD step:        4500 time   10.884979469272501     
 H      0.05808558     -0.06737669     -0.18068855      0.00237920      0.00746751      0.03637342
 H     -0.10776736      0.43058828      0.39593664     -0.00694345      0.02590063     -0.01659864
    2
 MD step:        4550 time   11.005923685597750     
 H      0.05835911     -0.06642235     -0.17623043      0.00214028      0.00830392      0.03733451
 H     -0.10859291      0.43366963      0.39387016     -0.00670453      0.02506423     -0.01755973
    2
 MD step:        4600 time   11.126867901923001     
 H      0.05860656     -0.06537060     -0.17166123      0.00193452      0.00907514      0.03820693
 H     -0.10939238      0.43665356      0.39169261     -0.00649877      0.02429301     -0.01843215
    2
 MD step:        4650 time   11.247812118248250     
 H      0.05882990     -0.06422988     -0.16699217      0.00176047      0.00977596      0.03898727
 H     -0.11016773      0.43954853      0.38941520     -0.00632472      0.02359219     -0.01921249
    2
 MD step:        4700 time   11.368756334573501     
 H      0.05903185     -0.06300925     -0.16223481      0.00160231      0.01039531      0.03966600
 H     -0.11092170      0.44236358      0.38704949     -0.00616656      0.02297283     -0.01989122
    2
 MD step:        4750 time   11.489700550898750     
 H      0.05921623     -0.06171928     -0.15740207      0.00146045      0.01092116      0.04023307
 H     -0.11165811      0.44510930      0.38460839     -0.00602470      0.02244699     -0.02045829
    2
 MD step:        4800 time   11.610644767224001     
 H      0.05938696     -0.06037136     -0.15250732      0.00135369      0.01135110      0.04068927
 H     -0.11238086      0.44779706      0.38210528     -0.00591794      0.02201704     -0.02091449
    2
 MD step:        4850 time   11.731588983549251     
 H      0.05954778     -0.05897783     -0.14756453      0.00129754      0.01167347      0.04102579
 H     -0.11309369      0.45043921      0.37955415     -0.00586179      0.02169468     -0.02125101
    2
 MD step:        4900 time   11.852533199874500     
 H      0.05970287     -0.05755219     -0.14258849      0.00128169      0.01188352      0.04124150
 H     -0.11380081      0.45304925      0.37696975     -0.00584595      0.02148462     -0.02146671
    2
 MD step:        4950 time   11.973477416199751     
 H      0.05985701     -0.05610812     -0.13759366      0.00129166      0.01197683      0.04133580
 H     -0.11450696      0.45564087      0.37436657     -0.00585591      0.02139132     -0.02156102
    2
 MD step:        5000 time   12.094421632525000     
 H      0.06001536     -0.05466022     -0.13259495      0.00133387      0.01194635      0.04130574
 H     -0.11521734      0.45822865      0.37175950     -0.00589812      0.02142180     -0.02153096
    2
 MD step:        5050 time   12.215365848850251     
 H      0.06018268     -0.05322324     -0.12760694      0.00142339      0.01179526      0.04115863
 H     -0.11593667      0.46082736      0.36916313     -0.00598764      0.02157289     -0.02138385
    2
 MD step:        5100 time   12.336310065175500     
 H      0.06036336     -0.05181213     -0.12264389      0.00156488      0.01151767      0.04089290
 H     -0.11666937      0.46345194      0.36659173     -0.00612913      0.02185048     -0.02111812
    2
 MD step:        5150 time   12.457254281500751     
 H      0.06056236     -0.05044238     -0.11772006      0.00174514      0.01111289      0.04051215
 H     -0.11742039      0.46611787      0.36405955     -0.00630940      0.02225526     -0.02073737
    2
 MD step:        5200 time   12.578198497826001     
 H      0.06078516     -0.04912915     -0.11284891      0.00195719      0.01058233      0.04002194
 H     -0.11819521      0.46884033      0.36158004     -0.00652144      0.02278581     -0.02024715
    2
 MD step:        5250 time   12.699142714151250     
 H      0.06103745     -0.04788779     -0.10804353      0.00221367      0.00992466      0.03942519
 H     -0.11899952      0.47163464      0.35916631     -0.00677793      0.02344349     -0.01965041
    2
 MD step:        5300 time   12.820086930476501     
 H      0.06132442     -0.04673315     -0.10331612      0.00252396      0.00914991      0.03873503
 H     -0.11983851      0.47451569      0.35683054     -0.00708821      0.02421823     -0.01896025
    2
 MD step:        5350 time   12.941031146801750     
 H      0.06165070     -0.04567897     -0.09867735      0.00287967      0.00826462      0.03796093
 H     -0.12071681      0.47749719      0.35458341     -0.00744392      0.02510353     -0.01818615
    2
 MD step:        5400 time   13.061975363127001     
 H      0.06202083     -0.04473806     -0.09413668      0.00326097      0.00728022      0.03711623
 H     -0.12163896      0.48059197      0.35243440     -0.00782523      0.02608792     -0.01734145
    2
 MD step:        5450 time   13.182919579452250     
 H      0.06243882     -0.04392133     -0.08970155      0.00366060      0.00621260      0.03621741
 H     -0.12260897      0.48381093      0.35039091     -0.00822485      0.02715555     -0.01644263
    2
 MD step:        5500 time   13.303863795777501     
 H      0.06290800     -0.04323830     -0.08537789      0.00409001      0.00507114      0.03527474
 H     -0.12363017      0.48716358      0.34845889     -0.00865426      0.02829700     -0.01549996
    2
 MD step:        5550 time   13.424808012102751     
 H      0.06343095     -0.04269694     -0.08117010      0.00455236      0.00387299      0.03430429
 H     -0.12470514      0.49065790      0.34664274     -0.00911661      0.02949516     -0.01452951
    2
 MD step:        5600 time   13.545752228428000     
 H      0.06400989     -0.04230319     -0.07708069      0.00503376      0.00263226      0.03331885
 H     -0.12583610      0.49429984      0.34494498     -0.00959801      0.03073589     -0.01354407
    2
 MD step:        5650 time   13.666696444753251     
 H      0.06464697     -0.04206133     -0.07311073      0.00551664      0.00136565      0.03233251
 H     -0.12702520      0.49809366      0.34336667     -0.01008089      0.03200249     -0.01255773
    2
 MD step:        5700 time   13.787640661078500     
 H      0.06534337     -0.04197286     -0.06925905      0.00599599      0.00009868      0.03136529
 H     -0.12827362      0.50204088      0.34190663     -0.01056024      0.03326947     -0.01159051
    2
 MD step:        5750 time   13.908584877403751     
 H      0.06609876     -0.04203679     -0.06552256      0.00647838     -0.00115179      0.03042956
 H     -0.12958102      0.50614049      0.34056179     -0.01104263      0.03451994     -0.01065478
    2
 MD step:        5800 time   14.029529093729000     
 H      0.06691154     -0.04224983     -0.06189654      0.00695585     -0.00236285      0.02954133