    2
 MD step:           0 time   0.0000000000000000     
 H      0.00000000      0.00000000     -0.37000000      0.01637410     -0.01333122      0.01139777
 H      0.00000000      0.00000000      0.37000000     -0.00410506      0.00299879      0.00310259
    2
 MD step:          50 time  0.12094421632525000     
 H      0.00198033     -0.00161234     -0.36862935      0.01637390     -0.01333142      0.01125967
 H     -0.00049646      0.00036269      0.37038309     -0.00410486      0.00299898      0.00324069
    2
 MD step:         100 time  0.24188843265050000     
 H      0.00396073     -0.00322474     -0.36727810      0.01637495     -0.01333215      0.01107853
 H     -0.00099299      0.00072544      0.37078557     -0.00410591      0.00299972      0.00342184
    2
 MD step:         150 time  0.36283264897575002     
 H      0.00594142     -0.00483727     -0.36595118      0.01637862     -0.01333364      0.01085776
 H     -0.00148981      0.00108832      0.37121239     -0.00410958      0.00300121      0.00364261
    2
 MD step:         200 time  0.48377686530100000     
 H      0.00792263     -0.00645003     -0.36465322      0.01638486     -0.01333607      0.01060008
 H     -0.00198715      0.00145144      0.37166817     -0.00411581      0.00300363      0.00390029
    2
 MD step:         250 time  0.60472108162625005     
 H      0.00990462     -0.00806315     -0.36338850      0.01639141     -0.01333959      0.01030881
 H     -0.00248527      0.00181491      0.37215718     -0.00412237      0.00300716      0.00419156
    2
 MD step:         300 time  0.72566529795150003     
 H      0.01188761     -0.00967677     -0.36216086      0.01639965     -0.01334435      0.00998747
 H     -0.00298439      0.00217888      0.37268327     -0.00413060      0.00301192      0.00451290
    2
 MD step:         350 time  0.84660951427675002     
 H      0.01387172     -0.01129105     -0.36097369      0.01641117     -0.01335043      0.00964014
 H     -0.00348464      0.00254351      0.37324984     -0.00414213      0.00301799      0.00486023
    2
 MD step:         400 time  0.96755373060200001     
 H      0.01585719     -0.01290614     -0.35982989      0.01642337     -0.01335789      0.00927111
 H     -0.00398623      0.00290896      0.37385978     -0.00415432      0.00302545      0.00522926
    2
 MD step:         450 time   1.0884979469272500     
 H      0.01784445     -0.01452222     -0.35873182      0.01643788     -0.01336674      0.00888478
 H     -0.00448962      0.00327539      0.37451544     -0.00416884      0.00303431      0.00561559
    2
 MD step:         500 time   1.2094421632525001     
 H      0.01983377     -0.01613946     -0.35768126      0.01645806     -0.01337696      0.00848619
 H     -0.00499507      0.00364298      0.37521862     -0.00418902      0.00304453      0.00601418
    2
 MD step:         550 time   1.3303863795777500     
 H      0.02182537     -0.01775801     -0.35667940      0.01647887     -0.01338847      0.00808039
 H     -0.00550280      0.00401188      0.37597049     -0.00420983      0.00305603      0.00641998
    2
 MD step:         600 time   1.4513305959030001     
 H      0.02381958     -0.01937802     -0.35572680      0.01649841     -0.01340114      0.00767240
 H     -0.00601315      0.00438224      0.37677163     -0.00422937      0.00306871      0.00682797
    2
 MD step:         650 time   1.5722748122282502     
 H      0.02581655     -0.02099963     -0.35482340      0.01652263     -0.01341483      0.00726757
 H     -0.00652624      0.00475420      0.37762197     -0.00425358      0.00308239      0.00723279
    2
 MD step:         700 time   1.6932190285535000     
 H      0.02781629     -0.02262294     -0.35396853      0.01654892     -0.01342932      0.00687076
 H     -0.00704211      0.00512787      0.37852083     -0.00427988      0.00309688      0.00762961
    2
 MD step:         750 time   1.8141632448787501     
 H      0.02981917     -0.02424805     -0.35316094      0.01657285     -0.01344439      0.00648662
 H     -0.00756113      0.00550333      0.37946697     -0.00430381      0.00311196      0.00801375
    2
 MD step:         800 time   1.9351074612040000     
 H      0.03182549     -0.02587500     -0.35239877      0.01660104     -0.01345976      0.00612039
 H     -0.00808357      0.00588063      0.38045854     -0.00433200      0.00312732      0.00837998
    2
 MD step:         850 time   2.0560516775292501     
 H      0.03383512     -0.02750381     -0.35167959      0.01663269     -0.01347512      0.00577651
 H     -0.00860934      0.00625979      0.38149309     -0.00436364      0.00314269      0.00872386
    2
 MD step:         900 time   2.1769958938545000     
 H      0.03584813     -0.02913446     -0.35100043      0.01665850     -0.01349015      0.00545929
 H     -0.00913848      0.00664080      0.38256767     -0.00438946      0.00315772      0.00904107
    2
 MD step:         950 time   2.2979401101797499     
 H      0.03786464     -0.03076689     -0.35035780      0.01668393     -0.01350450      0.00517301
 H     -0.00967111      0.00702358      0.38367877     -0.00441489      0.00317206      0.00932736
    2
 MD step:        1000 time   2.4188843265050002     
 H      0.03988433     -0.03240100     -0.34974776      0.01671432     -0.01351782      0.00492070
 H     -0.01020693      0.00740804      0.38482248     -0.00444528      0.00318539      0.00957967
    2
 MD step:        1050 time   2.5398285428302501     
 H      0.04190708     -0.03403664     -0.34916605      0.01673953     -0.01352978      0.00470523
 H     -0.01074581      0.00779403      0.38599450     -0.00447049      0.00319735      0.00979514
    2
 MD step:        1100 time   2.6607727591554999     
 H      0.04393311     -0.03567363     -0.34860801      0.01676080     -0.01353999      0.00452971
 H     -0.01128797      0.00818137      0.38719020     -0.00449176      0.00320756      0.00997066
    2
 MD step:        1150 time   2.7817169754807503     
 H      0.04596207     -0.03731172     -0.34806868      0.01678738     -0.01354813      0.00439607
 H     -0.01183307      0.00856982      0.38840460     -0.00451834      0.00321570      0.01010430
    2
 MD step:        1200 time   2.9026611918060001     
 H      0.04799344     -0.03895066     -0.34754288      0.01680901     -0.01355383      0.00430629
 H     -0.01238057      0.00895911      0.38963254     -0.00453997      0.00322140      0.01019407
    2
 MD step:        1250 time   3.0236054081312500     
 H      0.05002713     -0.04059013     -0.34702521      0.01682061     -0.01355677      0.00426186
 H     -0.01293039      0.00934893      0.39086860     -0.00455157      0.00322434      0.01023851
    2
 MD step:        1300 time   3.1445496244565003     
 H      0.05206276     -0.04222977     -0.34651016      0.01683583     -0.01355669      0.00426283
 H     -0.01348215      0.00973892      0.39210729     -0.00456679      0.00322426      0.01023754
    2
 MD step:        1350 time   3.2654938407817502     
 H      0.05409959     -0.04386920     -0.34599224      0.01685021     -0.01355334      0.00430941
 H     -0.01403511      0.01012871      0.39334311     -0.00458117      0.00322091      0.01019096
    2
 MD step:        1400 time   3.3864380571070001     
 H      0.05613750     -0.04550802     -0.34546593      0.01685220     -0.01354649      0.00440148
 H     -0.01458914      0.01051788      0.39457053     -0.00458316      0.00321405      0.01009888
    2
 MD step:        1450 time   3.5073822734322500     
 H      0.05817629     -0.04714579     -0.34492578      0.01685462     -0.01353596      0.00453798
 H     -0.01514407      0.01090600      0.39578412     -0.00458558      0.00320353      0.00996238
    2
 MD step:        1500 time   3.6283264897575003     
 H      0.06021503     -0.04878206     -0.34436646      0.01685958     -0.01352156      0.00471853
 H     -0.01569894      0.01129262      0.39697853     -0.00459054      0.00318913      0.00978184
    2
 MD step:        1550 time   3.7492707060827501     
 H      0.06225319     -0.05041634     -0.34378272      0.01685010     -0.01350318      0.00494157
 H     -0.01625323      0.01167726      0.39814852     -0.00458106      0.00317075      0.00955879
    2
 MD step:        1600 time   3.8702149224080000     
 H      0.06429060     -0.05204816     -0.34316955      0.01683496     -0.01348082      0.00520449
 H     -0.01680677      0.01205943      0.39928909     -0.00456592      0.00314839      0.00929588
    2
 MD step:        1650 time   3.9911591387332503     
 H      0.06632635     -0.05367703     -0.34252227      0.01682631     -0.01345443      0.00550536
 H     -0.01735865      0.01243865      0.40039555     -0.00455727      0.00312200      0.00899500
    2
 MD step:        1700 time   4.1121033550585002     
 H      0.06835975     -0.05530248     -0.34183647      0.01680704     -0.01342411      0.00584103
 H     -0.01790818      0.01281444      0.40146348     -0.00453799      0.00309168      0.00865933
    2
 MD step:        1750 time   4.2330475713837501     
 H      0.07039092     -0.05692402     -0.34110814      0.01677733     -0.01338999      0.00620797
 H     -0.01845548      0.01318634      0.40248889     -0.00450828      0.00305756      0.00829240
    2
 MD step:        1800 time   4.3539917877090000     
 H      0.07241920     -0.05854121     -0.34033363      0.01675574     -0.01335210      0.00660425
 H     -0.01899989      0.01355388      0.40346812     -0.00448670      0.00301967      0.00789612
    2
 MD step:        1850 time   4.4749360040342498     
 H      0.07444362     -0.06015359     -0.33950962      0.01672863     -0.01331064      0.00702618
 H     -0.01954044      0.01391662      0.40439784     -0.00445959      0.00297821      0.00747418
    2
 MD step:        1900 time   4.5958802203594997     
 H      0.07646418     -0.06176076     -0.33863323      0.01668536     -0.01326590      0.00746962
 H     -0.02007713      0.01427414      0.40527519     -0.00441632      0.00293346      0.00703075
    2
 MD step:        1950 time   4.7168244366847505     
 H      0.07848053     -0.06336233     -0.33770204      0.01664814     -0.01321805      0.00793171
 H     -0.02060961      0.01462606      0.40609773     -0.00437910      0.00288562      0.00656866
    2
 MD step:        2000 time   4.8377686530100004     
 H      0.08049165     -0.06495795     -0.33671408      0.01661405     -0.01316753      0.00840756
 H     -0.02113686      0.01497203      0.40686351     -0.00434501      0.00283509      0.00609281
    2
 MD step:        2050 time   4.9587128693352502     
 H      0.08249763     -0.06654732     -0.33566801      0.01656386     -0.01311478      0.00889227
 H     -0.02165897      0.01531175      0.40757117     -0.00429482      0.00278235      0.00560810
    2
 MD step:        2100 time   5.0796570856605001     
 H      0.08449870     -0.06813018     -0.33456289      0.01651637     -0.01306008      0.00938302
 H     -0.02217618      0.01564497      0.40821979     -0.00424733      0.00272765      0.00511735
    2
 MD step:        2150 time   5.2006013019857500     
 H      0.08649406     -0.06970634     -0.33339829      0.01648005     -0.01300390      0.00987532
 H     -0.02268767      0.01597148      0.40880892     -0.00421101      0.00267147      0.00462505
    2
 MD step:        2200 time   5.3215455183109999     
 H      0.08848356     -0.07127564     -0.33217429      0.01642967     -0.01294674      0.01036491
 H     -0.02319329      0.01629113      0.40933866     -0.00416063      0.00261431      0.00413546
    2
 MD step:        2250 time   5.4424897346362506     
 H      0.09046773     -0.07283798     -0.33089137      0.01637435     -0.01288896      0.01084877
 H     -0.02369360      0.01660382      0.40980947     -0.00410531      0.00255652      0.00365160
    2
 MD step:        2300 time   5.5634339509615005     
 H      0.09244607     -0.07439333     -0.32955051      0.01633529     -0.01283117      0.01132208
 H     -0.02418807      0.01690952      0.41022235     -0.00406625      0.00249874      0.00317828
    2
 MD step:        2350 time   5.6843781672867504     
 H      0.09441831     -0.07594172     -0.32815331      0.01629052     -0.01277402      0.01178027
 H     -0.02467643      0.01720827      0.41057889     -0.00402147      0.00244158      0.00272010
    2
 MD step:        2400 time   5.8053223836120003     
 H      0.09638542     -0.07748326     -0.32670176      0.01623651     -0.01271801      0.01221983
 H     -0.02515967      0.01750016      0.41088107     -0.00396747      0.00238557      0.00228054
    2
 MD step:        2450 time   5.9262665999372501     
 H      0.09834762     -0.07901813     -0.32519837      0.01620151     -0.01266378      0.01263664
 H     -0.02563800      0.01778538      0.41113142     -0.00393247      0.00233134      0.00186373
    2
 MD step:        2500 time   6.0472108162625000     
 H      0.10030463     -0.08054657     -0.32364614      0.01617123     -0.01261184      0.01302772
 H     -0.02611115      0.01806418      0.41133292     -0.00390218      0.00227941      0.00147265
    2
 MD step:        2550 time   6.1681550325877499     
 H      0.10225749     -0.08206890     -0.32204828      0.01612724     -0.01256270      0.01339036
 H     -0.02658014      0.01833685      0.41148880     -0.00385820      0.00223027      0.00111001
    2
 MD step:        2600 time   6.2890992489130007     
 H      0.10420693     -0.08358548     -0.32040844      0.01609784     -0.01251698      0.01372118
 H     -0.02704571      0.01860379      0.41160269     -0.00382880      0.00218454      0.00077918
    2
 MD step:        2650 time   6.4100434652382505     
 H      0.10615269     -0.08509677     -0.31873065      0.01608386     -0.01247516      0.01401787
 H     -0.02750759      0.01886543      0.41167864     -0.00381482      0.00214273      0.00048250
    2
 MD step:        2700 time   6.5309876815635004     
 H      0.10809575     -0.08660327     -0.31701920      0.01605843     -0.01243790      0.01427720
 H     -0.02796678      0.01912228      0.41172093     -0.00378938      0.00210547      0.00022317
    2
 MD step:        2750 time   6.6519318978887503     
 H      0.11003761     -0.08810556     -0.31527878      0.01604262     -0.01240584      0.01449622
 H     -0.02842477      0.01937492      0.41173425     -0.00377358      0.00207340      0.00000415
    2
 MD step:        2800 time   6.7728761142140002     
 H      0.11197847     -0.08960431     -0.31351436      0.01605191     -0.01237925      0.01467443
 H     -0.02888177      0.01962403      0.41172355     -0.00378287      0.00204682     -0.00017406
    2
 MD step:        2850 time   6.8938203305392500     
 H      0.11391915     -0.09110020     -0.31173093      0.01605523     -0.01235860      0.01481035
 H     -0.02933857      0.01987027      0.41169387     -0.00378619      0.00202617     -0.00030998
    2
 MD step:        2900 time   7.0147645468644999     
 H      0.11586147     -0.09259397     -0.30993367      0.01605839     -0.01234429      0.01490284
 H     -0.02979702      0.02011439      0.41165034     -0.00378935      0.00201186     -0.00040248
    2
 MD step:        2950 time   7.1357087631897507     
 H      0.11780595     -0.09408640     -0.30812779      0.01608929     -0.01233641      0.01495295
 H     -0.03025764      0.02035717      0.41159819     -0.00382025      0.00200397     -0.00045258
    2
 MD step:        3000 time   7.2566529795150005     
 H      0.11975305     -0.09557828     -0.30631849      0.01612393     -0.01233538      0.01495941
 H     -0.03072087      0.02059941      0.41154263     -0.00385488      0.00200295     -0.00045905
    2
 MD step:        3050 time   7.3775971958402504     
 H      0.12170481     -0.09707048     -0.30451109      0.01615249     -0.01234160      0.01492138
 H     -0.03118876      0.02084195      0.41148897     -0.00388345      0.00200917     -0.00042102
    2
 MD step:        3100 time   7.4985414121655003     
 H      0.12366245     -0.09856386     -0.30271086      0.01620829     -0.01235493      0.01484118
 H     -0.03166253      0.02108568      0.41144247     -0.00393925      0.00202250     -0.00034081
    2
 MD step:        3150 time   7.6194856284907502     
 H      0.12562634     -0.10005928     -0.30092284      0.01627912     -0.01237546      0.01471975
 H     -0.03214255      0.02133146      0.41140819     -0.00401007      0.00204303     -0.00021939
    2
 MD step:        3200 time   7.7404298448160000     
 H      0.12759825     -0.10155763     -0.29915194      0.01633836     -0.01240313      0.01455878
 H     -0.03263059      0.02158016      0.41139102     -0.00406932      0.00207070     -0.00005842
    2
 MD step:        3250 time   7.8613740611412499     
 H      0.12957973     -0.10305972     -0.29740266      0.01641518     -0.01243747      0.01436233
 H     -0.03312820      0.02183261      0.41139548     -0.00414614      0.00210504      0.00013804
    2
 MD step:        3300 time   7.9823182774665007     
 H      0.13157085     -0.10456637     -0.29567921      0.01651559     -0.01247840      0.01413202
 H     -0.03363545      0.02208961      0.41142576     -0.00424655      0.00214596      0.00036835
    2
 MD step:        3350 time   8.1032624937917497     
 H      0.13357289     -0.10607837     -0.29398560      0.01660555     -0.01252577      0.01386972
 H     -0.03415362      0.02235195      0.41148589     -0.00433651      0.00219334      0.00063065
    2
 MD step:        3400 time   8.2242067101170004     
 H      0.13558778     -0.10759645     -0.29232539      0.01670285     -0.01257898      0.01357980
 H     -0.03468464      0.02262038      0.41157942     -0.00443381      0.00224655      0.00092056
    2
 MD step:        3450 time   8.3451509264422494     
 H      0.13761578     -0.10912129     -0.29070175      0.01682944     -0.01263754      0.01326580
 H     -0.03522877      0.02289558      0.41170951     -0.00456040      0.00230511      0.00123457
    2
 MD step:        3500 time   8.4660951427675002     
 H      0.13965742     -0.11065351     -0.28911735      0.01694918     -0.01270073      0.01293222
 H     -0.03578654      0.02317815      0.41187885     -0.00468014      0.00236830      0.00156814
    2
 MD step:        3550 time   8.5870393590927510     
 H      0.14171438     -0.11219360     -0.28757417      0.01706082     -0.01276761      0.01258468
 H     -0.03635963      0.02346859      0.41208940     -0.00479178      0.00243517      0.00191569
    2
 MD step:        3600 time   8.7079835754179999     
 H      0.14378683     -0.11374197     -0.28607366      0.01719899     -0.01283752      0.01222688
 H     -0.03694821      0.02376731      0.41234263     -0.00492995      0.00250509      0.00227349
    2
 MD step:        3650 time   8.8289277917432507     
 H      0.14587447     -0.11529894     -0.28461688      0.01733867     -0.01290974      0.01186285
 H     -0.03755198      0.02407464      0.41263959     -0.00506962      0.00257731      0.00263752
    2
 MD step:        3700 time   8.9498720080684997     
 H      0.14797868     -0.11686474     -0.28320425      0.01746029     -0.01298337      0.01149726
 H     -0.03817232      0.02439079      0.41298069     -0.00519125      0.00265093      0.00300311
    2
 MD step:        3750 time   9.0708162243937505     
 H      0.15009994     -0.11843948     -0.28183569      0.01760111     -0.01305748      0.01113468
 H     -0.03880971      0.02471589      0.41336587     -0.00533207      0.00272505      0.00336568
    2
 MD step:        3800 time   9.1917604407189994     
 H      0.15223725     -0.12002316     -0.28051053      0.01775138     -0.01313081      0.01078114
 H     -0.03946315      0.02504992      0.41379444     -0.00548233      0.00279838      0.00371922
    2
 MD step:        3850 time   9.3127046570442502     
 H      0.15439098     -0.12161561     -0.27922732      0.01787449     -0.01320229      0.01044150
 H     -0.04013301      0.02539271      0.41426496     -0.00560544      0.00286986      0.00405887
    2
 MD step:        3900 time   9.4336488733695010     
 H      0.15656152     -0.12321653     -0.27798414      0.01800134     -0.01327106      0.01011935
 H     -0.04081968      0.02574399      0.41477552     -0.00573229      0.00293863      0.00438102
    2
 MD step:        3950 time   9.5545930896947500     
 H      0.15874735     -0.12482557     -0.27677866      0.01814492     -0.01333608      0.00981909
 H     -0.04152164      0.02610338      0.41532378     -0.00587588      0.00300365      0.00468128
    2
 MD step:        4000 time   9.6755373060200007     
 H      0.16094798     -0.12644220     -0.27560805      0.01826232     -0.01339660      0.00954348
 H     -0.04223841      0.02647036      0.41590690     -0.00599328      0.00306416      0.00495688
    2
 MD step:        4050 time   9.7964815223452497     
 H      0.16316392     -0.12806583     -0.27446909      0.01836761     -0.01345176      0.00929571
 H     -0.04297047      0.02684435      0.41652168     -0.00609857      0.00311932      0.00520466
    2
 MD step:        4100 time   9.9174257386705005     
 H      0.16539352     -0.12969574     -0.27335814      0.01849156     -0.01350014      0.00908132
 H     -0.04371621      0.02722461      0.41716446     -0.00622251      0.00316771      0.00541905
    2
 MD step:        4150 time   10.038369954995749     
 H      0.16763508     -0.13133106     -0.27227100      0.01859363     -0.01354100      0.00890265
 H     -0.04447390      0.02761028      0.41783106     -0.00632459      0.00320857      0.00559771
    2
 MD step:        4200 time   10.159314171321000     
 H      0.16988860     -0.13297084     -0.27120322      0.01866603     -0.01357384      0.00876099
 H     -0.04524355      0.02800041      0.41851702     -0.00639699      0.00324141      0.00573938
    2
 MD step:        4250 time   10.280258387646251     
 H      0.17215258     -0.13461405     -0.27015016      0.01875355     -0.01359770      0.00865939
 H     -0.04602365      0.02839397      0.41921769     -0.00648451      0.00326527      0.00584098
    2
 MD step:        4300 time   10.401202603971500     
 H      0.17442457     -0.13625960     -0.26910702      0.01883210     -0.01361239      0.00859763
 H     -0.04681177      0.02878987      0.41992829     -0.00656305      0.00327995      0.00590274
    2
 MD step:        4350 time   10.522146820296751     
 H      0.17670429     -0.13790636     -0.26806894      0.01887102     -0.01361769      0.00857559
 H     -0.04760763      0.02918698      0.42064395     -0.00660198      0.00328526      0.00592478
    2
 MD step:        4400 time   10.643091036622000     
 H      0.17899073     -0.13955313     -0.26703090      0.01891479     -0.01361250      0.00859679
 H     -0.04841019      0.02958410      0.42135964     -0.00664575      0.00328007      0.00590358
    2
 MD step:        4450 time   10.764035252947250     
 H      0.18128085     -0.14119863     -0.26598771      0.01896165     -0.01359657      0.00866120
 H     -0.04921645      0.02997996      0.42207019     -0.00669261      0.00326413      0.00583916
    2
 MD step:        4500 time   10.884979469272501     
 H      0.18357346     -0.14284156     -0.26493424      0.01896412     -0.01357003      0.00876714
 H     -0.05002519      0.03037325      0.42277045     -0.00669508      0.00323760      0.00573323
    2
 MD step:        4550 time   11.005923685597750     
 H      0.18586791     -0.14448061     -0.26386533      0.01895607     -0.01353251      0.00891518
 H     -0.05083577      0.03076265      0.42345527     -0.00668703      0.00320008      0.00558519
    2
 MD step:        4600 time   11.126867901923001     
 H      0.18816130     -0.14611448     -0.26277610      0.01896390     -0.01348430      0.00910308
 H     -0.05164529      0.03114686      0.42411978     -0.00669486      0.00315187      0.00539729
    2
 MD step:        4650 time   11.247812118248250     
 H      0.19045189     -0.14774192     -0.26166199      0.01893547     -0.01342605      0.00932743
 H     -0.05245201      0.03152466      0.42475941     -0.00666643      0.00309361      0.00517294
    2
 MD step:        4700 time   11.368756334573501     
 H      0.19273964     -0.14936168     -0.26051846      0.01888093     -0.01335756      0.00958808
 H     -0.05325589      0.03189477      0.42536961     -0.00661189      0.00302513      0.00491228
    2
 MD step:        4750 time   11.489700550898750     
 H      0.19502220     -0.15097253     -0.25934124      0.01884756     -0.01327887      0.00988408
 H     -0.05405458      0.03225597      0.42594613     -0.00657852      0.00294644      0.00461629
    2
 MD step:        4800 time   11.610644767224001     
 H      0.19729704     -0.15257330     -0.25812634      0.01879146     -0.01319058      0.01021236
 H     -0.05484554      0.03260710      0.42648496     -0.00652242      0.00285814      0.00428801
    2
 MD step:        4850 time   11.731588983549251     
 H      0.19956408     -0.15416283     -0.25686986      0.01869475     -0.01309323      0.01057015
 H     -0.05562872      0.03294697      0.42698222     -0.00642570      0.00276080      0.00393021
    2
 MD step:        4900 time   11.852533199874500     
 H      0.20182191     -0.15574004     -0.25556839      0.01861715     -0.01298739      0.01095476
 H     -0.05640268      0.03327454      0.42743448     -0.00634810      0.00265496      0.00354561
    2
 MD step:        4950 time   11.973477416199751     
 H      0.20406783     -0.15730402     -0.25421911      0.01853876     -0.01287404      0.01136201
 H     -0.05716473      0.03358887      0.42783894     -0.00626971      0.00254161      0.00313836
    2
 MD step:        5000 time   12.094421632525000     
 H      0.20630191     -0.15885389     -0.25281942      0.01841594     -0.01275438      0.01178715
 H     -0.05791494      0.03388910      0.42819299     -0.00614690      0.00242195      0.00271322
    2
 MD step:        5050 time   12.215365848850251     
 H      0.20852405     -0.16038891     -0.25136723      0.01830296     -0.01262884      0.01222825
 H     -0.05865321      0.03417446      0.42849454     -0.00603392      0.00229641      0.00227211
    2
 MD step:        5100 time   12.336310065175500     
 H      0.21073174     -0.16190842     -0.24986089      0.01820906     -0.01249774      0.01268383
 H     -0.05937703      0.03444433      0.42874193     -0.00594002      0.00216531      0.00181654
    2
 MD step:        5150 time   12.457254281500751     
 H      0.21292451     -0.16341183     -0.24829890      0.01807387     -0.01236256      0.01314847
 H     -0.06008593      0.03469809      0.42893367     -0.00580483      0.00203012      0.00135190
    2
 MD step:        5200 time   12.578198497826001     
 H      0.21510318     -0.16489865     -0.24668020      0.01793180     -0.01222419      0.01361891
 H     -0.06078073      0.03493526      0.42906871     -0.00566276      0.00189176      0.00088146
    2
 MD step:        5250 time   12.699142714151250     
 H      0.21726594     -0.16636858     -0.24500437      0.01782415     -0.01208309      0.01409346
 H     -0.06145962      0.03515554      0.42914661     -0.00555510      0.00175066      0.00040691
    2
 MD step:        5300 time   12.820086930476501     
 H      0.21941201     -0.16782141     -0.24327136      0.01769241     -0.01194141      0.01456488
 H     -0.06212182      0.03535873      0.42916734     -0.00542337      0.00160898     -0.00006451
    2
 MD step:        5350 time   12.941031146801750     
 H      0.22154325     -0.16925712     -0.24148166      0.01754049     -0.01180054      0.01502864
 H     -0.06276919      0.03554479      0.42913138     -0.00527145      0.00146810     -0.00052827
    2
 MD step:        5400 time   13.061975363127001     
 H      0.22365925     -0.17067581     -0.23963626      0.01742994     -0.01166032      0.01548537
 H     -0.06340132      0.03571383      0.42903971     -0.00516090      0.00132788     -0.00098500
    2
 MD step:        5450 time   13.182919579452250     
 H      0.22575894     -0.17207771     -0.23773644      0.01731775     -0.01152233      0.01593006
 H     -0.06401714      0.03586608      0.42889362     -0.00504871      0.00118990     -0.00142969
    2
 MD step:        5500 time   13.303863795777501     
 H      0.22784437     -0.17346312     -0.23578375      0.01717314     -0.01138807      0.01635823
 H     -0.06461871      0.03600184      0.42869467     -0.00490410      0.00105564     -0.00185786
    2
 MD step:        5550 time   13.424808012102751     
 H      0.22991638     -0.17483247     -0.23378011      0.01706335     -0.01125735      0.01677075
 H     -0.06520684      0.03612154      0.42844476     -0.00479430      0.00092492     -0.00227038
    2
 MD step:        5600 time   13.545752228428000     
 H      0.23197387     -0.17618634     -0.23172788      0.01697742     -0.01113187      0.01716262
 H     -0.06578047      0.03622577      0.42814628     -0.00470837      0.00079944     -0.00266225
    2
 MD step:        5650 time   13.666696444753251     
 H      0.23401891     -0.17752548     -0.22962988      0.01686014     -0.01101383      0.01752745
 H     -0.06634163      0.03631526      0.42780201     -0.00459109      0.00068140     -0.00302708
    2
 MD step:        5700 time   13.787640661078500     
 H      0.23605396     -0.17885075     -0.22748923      0.01676637     -0.01090330      0.01786553
 H     -0.06689282      0.03639088      0.42741510     -0.00449733      0.00057087     -0.00336516
    2
 MD step:        5750 time   13.908584877403751     
 H      0.23807870     -0.18016316     -0.22530948      0.01671901     -0.01080109      0.01817493
 H     -0.06743368      0.03645365      0.42698908     -0.00444997      0.00046866     -0.00367456
    2
 MD step:        5800 time   14.029529093729000     
 H      0.24009474     -0.18146384     -0.22309435      0.01664946     -0.01070874      0.01845160