    2
 MD step:           0 time   0.0000000000000000     
 H      0.00000000      0.00000000     -0.37000000      0.00260178     -0.01973953     -0.03395803
 H      0.00000000      0.00000000      0.37000000     -0.04658269     -0.02029298      0.01218069
    2
 MD step:          50 time  0.12094421632525000     
 H      0.00031468     -0.00238738     -0.37411127      0.00260186     -0.01973953     -0.03402898
 H     -0.00563391     -0.00245432      0.37147743     -0.04658276     -0.02029298      0.01225164
    2
 MD step:         100 time  0.24188843265050000     
 H      0.00062937     -0.00477476     -0.37822857      0.00260243     -0.01973952     -0.03410787
 H     -0.01126784     -0.00490864      0.37296088     -0.04658333     -0.02029299      0.01233053
    2
 MD step:         150 time  0.36283264897575002     
 H      0.00094429     -0.00716214     -0.38236766      0.00260704     -0.01973947     -0.03439551
 H     -0.01690200     -0.00736296      0.37446613     -0.04658795     -0.02029304      0.01261817
    2
 MD step:         200 time  0.48377686530100000     
 H      0.00126017     -0.00954951     -0.38656083      0.00261952     -0.01973933     -0.03496733
 H     -0.02253712     -0.00981729      0.37602546     -0.04660042     -0.02029318      0.01318998
    2
 MD step:         250 time  0.60472108162625005     
 H      0.00157822     -0.01193685     -0.39084179      0.00264245     -0.01973907     -0.03582183
 H     -0.02817440     -0.01227165      0.37767258     -0.04662336     -0.02029344      0.01404449
    2
 MD step:         300 time  0.72566529795150003     
 H      0.00189993     -0.01432416     -0.39523994      0.00267618     -0.01973869     -0.03687601
 H     -0.03381535     -0.01472605      0.37943688     -0.04665709     -0.02029382      0.01509867
    2
 MD step:         350 time  0.84660951427675002     
 H      0.00222657     -0.01671140     -0.39977077      0.00271990     -0.01973820     -0.03801744
 H     -0.03946122     -0.01718050      0.38133387     -0.04670081     -0.02029431      0.01624010
    2
 MD step:         400 time  0.96755373060200001     
 H      0.00255903     -0.01909859     -0.40444013      0.00277340     -0.01973760     -0.03918348
 H     -0.04511292     -0.01963502      0.38336938     -0.04675431     -0.02029491      0.01740614
    2
 MD step:         450 time   1.0884979469272500     
 H      0.00289759     -0.02148570     -0.40924290      0.00282991     -0.01973696     -0.04027332
 H     -0.05077072     -0.02208961      0.38553831     -0.04681081     -0.02029555      0.01849598
    2
 MD step:         500 time   1.2094421632525001     
 H      0.00324226     -0.02387274     -0.41416987      0.00288306     -0.01973636     -0.04126970
 H     -0.05643462     -0.02454426      0.38783143     -0.04686396     -0.02029615      0.01949236
    2
 MD step:         550 time   1.3303863795777500     
 H      0.00359326     -0.02625972     -0.41921534      0.00292746     -0.01973586     -0.04216225
 H     -0.06210486     -0.02699899      0.39024306     -0.04690837     -0.02029665      0.02038491
    2
 MD step:         600 time   1.4513305959030001     
 H      0.00395109     -0.02864661     -0.42437723      0.00297701     -0.01973531     -0.04309692
 H     -0.06778193     -0.02945380      0.39277111     -0.04695792     -0.02029721      0.02131958
    2
 MD step:         650 time   1.5722748122282502     
 H      0.00431714     -0.03103342     -0.42966543      0.00306046     -0.01973437     -0.04429938
 H     -0.07346721     -0.03190869      0.39542546     -0.04704137     -0.02029814      0.02252204
    2
 MD step:         700 time   1.6932190285535000     
 H      0.00469380     -0.03342010     -0.43510147      0.00318892     -0.01973292     -0.04582004
 H     -0.07916310     -0.03436371      0.39822766     -0.04716982     -0.02029959      0.02404270
    2
 MD step:         750 time   1.8141632448787501     
 H      0.00508647     -0.03580661     -0.44073272      0.00335492     -0.01973105     -0.04763374
 H     -0.08487501     -0.03681891      0.40122507     -0.04733583     -0.02030146      0.02585640
    2
 MD step:         800 time   1.9351074612040000     
 H      0.00550536     -0.03819282     -0.44664042      0.00357710     -0.01972855     -0.04996128
 H     -0.09061314     -0.03927440      0.40449893     -0.04755801     -0.02030396      0.02818394
    2
 MD step:         850 time   2.0560516775292501     
 H      0.00596369     -0.04057858     -0.45291876      0.00395986     -0.01972425     -0.05355112
 H     -0.09639070     -0.04173033      0.40814342     -0.04794076     -0.02030827      0.03177378
    2
 MD step:         900 time   2.1769958938545000     
 H      0.00647627     -0.04296374     -0.45966666      0.00456818     -0.01971740     -0.05858918
 H     -0.10222252     -0.04418688      0.41225748     -0.04854908     -0.02031511      0.03681183
    2
 MD step:         950 time   2.2979401101797499     
 H      0.00706321     -0.04534805     -0.46701673      0.00527173     -0.01970949     -0.06389751
 H     -0.10812869     -0.04664426      0.41697370     -0.04925263     -0.02032303      0.04212017
    2
 MD step:        1000 time   2.4188843265050002     
 H      0.00775284     -0.04773122     -0.47514074      0.00608400     -0.01970035     -0.06978120
 H     -0.11413757     -0.04910280      0.42246387     -0.05006491     -0.02033217      0.04800386
    2
 MD step:        1050 time   2.5398285428302501     
 H      0.00856348     -0.05011302     -0.48411016      0.00724747     -0.01968725     -0.07794026
 H     -0.12026744     -0.05156270      0.42879945     -0.05122838     -0.02034526      0.05616292
    2
 MD step:        1100 time   2.6607727591554999     
 H      0.00949815     -0.05249342     -0.49389659      0.00837487     -0.01967457     -0.08522919
 H     -0.12652135     -0.05402400      0.43595204     -0.05235577     -0.02035795      0.06345185
    2
 MD step:        1150 time   2.7817169754807503     
 H      0.01056793     -0.05487231     -0.50454967      0.00921348     -0.01966513     -0.09020412
 H     -0.13291036     -0.05648681      0.44397127     -0.05319438     -0.02036738      0.06842678
    2
 MD step:        1200 time   2.9026611918060001     
 H      0.01174536     -0.05724998     -0.51586788      0.01014223     -0.01965468     -0.09601824
 H     -0.13940703     -0.05895084      0.45265563     -0.05412314     -0.02037783      0.07424089
    2
 MD step:        1250 time   3.0236054081312500     
 H      0.01299064     -0.05962689     -0.52760026      0.01052911     -0.01965033     -0.09863135
 H     -0.14597155     -0.06141563      0.46175417     -0.05451001     -0.02038219      0.07685401
    2
 MD step:        1300 time   3.1445496244565003     
 H      0.01428679     -0.06200323     -0.53967123      0.01075797     -0.01964775     -0.10025056
 H     -0.15258693     -0.06388099      0.47119130     -0.05473887     -0.02038476      0.07847322
    2
 MD step:        1350 time   3.2654938407817502     
 H      0.01559332     -0.06437945     -0.55186014      0.01095287     -0.01964556     -0.10175721
 H     -0.15921270     -0.06634647      0.48074636     -0.05493377     -0.02038695      0.07997987
    2
 MD step:        1400 time   3.3864380571070001     
 H      0.01693099     -0.06675532     -0.56427121      0.01108169     -0.01964411     -0.10292121
 H     -0.16586960     -0.06881230      0.49052359     -0.05506259     -0.02038840      0.08114387
    2
 MD step:        1450 time   3.5073822734322500     
 H      0.01829586     -0.06913089     -0.57683861      0.01163564     -0.01963788     -0.10584364
 H     -0.17255371     -0.07127844      0.50045715     -0.05561655     -0.02039464      0.08406630
    2
 MD step:        1500 time   3.6283264897575003     
 H      0.01972700     -0.07150570     -0.58975158      0.01192006     -0.01963467     -0.10688061
 H     -0.17930409     -0.07374532      0.51073627     -0.05590097     -0.02039784      0.08510327
    2
 MD step:        1550 time   3.7492707060827501     
 H      0.02120243     -0.07388002     -0.60285300      0.01253017     -0.01962781     -0.11007756
 H     -0.18609875     -0.07621270      0.52120385     -0.05651108     -0.02040470      0.08830022
    2
 MD step:        1600 time   3.8702149224080000     
 H      0.02272270     -0.07625384     -0.61617717      0.01249474     -0.01962821     -0.10988300
 H     -0.19293826     -0.07868059      0.53189418     -0.05647565     -0.02040430      0.08810566
    2
 MD step:        1650 time   3.9911591387332503     
 H      0.02423646     -0.07862773     -0.62950782      0.01261139     -0.01962690     -0.11079925
 H     -0.19977126     -0.08114840      0.54259098     -0.05659230     -0.02040562      0.08902191
    2
 MD step:        1700 time   4.1121033550585002     
 H      0.02576340     -0.08100147     -0.64294265      0.01253311     -0.01962778     -0.11080725
 H     -0.20661743     -0.08361636      0.55339198     -0.05651402     -0.02040474      0.08902991
    2
 MD step:        1750 time   4.2330475713837501     
 H      0.02727582     -0.08337537     -0.65630112      0.01265578     -0.01962640     -0.11103616
 H     -0.21344909     -0.08608416      0.56411659     -0.05663669     -0.02040612      0.08925881
    2
 MD step:        1800 time   4.3539917877090000     
 H      0.02883302     -0.08574877     -0.66985269      0.01292043     -0.01962342     -0.11201162
 H     -0.22032552     -0.08855246      0.57503433     -0.05690134     -0.02040910      0.09023428
    2
 MD step:        1850 time   4.4749360040342498     
 H      0.03037739     -0.08812232     -0.68329844      0.01269442     -0.01962596     -0.11094982
 H     -0.22718913     -0.09102061      0.58584622     -0.05667533     -0.02040655      0.08917247
    2
 MD step:        1900 time   4.5958802203594997     
 H      0.03191904     -0.09049589     -0.69675824      0.01276303     -0.01962519     -0.11143949
 H     -0.23405002     -0.09348874      0.59667218     -0.05674394     -0.02040732      0.08966214
    2
 MD step:        1950 time   4.7168244366847505     
 H      0.03344198     -0.09286968     -0.71016753      0.01235914     -0.01962973     -0.10986373
 H     -0.24089220     -0.09595666      0.60744763     -0.05634005     -0.02040278      0.08808638
    2
 MD step:        2000 time   4.8377686530100004     
 H      0.03493003     -0.09524386     -0.72339498      0.01241701     -0.01962908     -0.10977649
 H     -0.24769947     -0.09842418      0.61804124     -0.05639791     -0.02040343      0.08799914
    2
 MD step:        2050 time   4.9587128693352502     
 H      0.03644568     -0.09761773     -0.73672372      0.01247180     -0.01962847     -0.10968793
 H     -0.25453437     -0.10089201      0.62873613     -0.05645270     -0.02040405      0.08791058
    2
 MD step:        2100 time   5.0796570856605001     
 H      0.03792085     -0.09999205     -0.74984059      0.01196252     -0.01963420     -0.10760216
 H     -0.26132877     -0.10335939      0.63921915     -0.05594342     -0.02039832      0.08582481
    2
 MD step:        2150 time   5.2006013019857500     
 H      0.03936009     -0.10236678     -0.76283061      0.01189842     -0.01963492     -0.10743263
 H     -0.26808725     -0.10582636      0.64957533     -0.05587933     -0.02039759      0.08565527
    2
 MD step:        2200 time   5.3215455183109999     
 H      0.04079142     -0.10474159     -0.77580325      0.01165008     -0.01963771     -0.10639116
 H     -0.27483781     -0.10829325      0.65991412     -0.05563099     -0.02039480      0.08461380
    2
 MD step:        2250 time   5.4424897346362506     
 H      0.04216819     -0.10711702     -0.78848619      0.01123450     -0.01964239     -0.10403006
 H     -0.28153382     -0.11075952      0.66996322     -0.05521541     -0.02039012      0.08225270
    2
 MD step:        2300 time   5.5634339509615005     
 H      0.04353208     -0.10949260     -0.80109821      0.01128979     -0.01964177     -0.10432680
 H     -0.28821695     -0.11322564      0.67994139     -0.05527069     -0.02039075      0.08254945
    2
 MD step:        2350 time   5.6843781672867504     
 H      0.04487494     -0.11186841     -0.81363147      0.01081678     -0.01964709     -0.10262803
 H     -0.29487904     -0.11569153      0.68984081     -0.05479769     -0.02038542      0.08085068
    2
 MD step:        2400 time   5.8053223836120003     
 H      0.04614300     -0.11424507     -0.82586723      0.01025385     -0.01965342     -0.09996079
 H     -0.30146634     -0.11815658      0.69944272     -0.05423475     -0.02037909      0.07818343
    2
 MD step:        2450 time   5.9262665999372501     
 H      0.04739022     -0.11662195     -0.83797648      0.01041392     -0.01965162     -0.10052240
 H     -0.30803280     -0.12062139      0.70891813     -0.05439483     -0.02038089      0.07874505
    2
 MD step:        2500 time   6.0472108162625000     
 H      0.04863623     -0.11899886     -0.85005903      0.01004136     -0.01965581     -0.09875412
 H     -0.31459804     -0.12308619      0.71836683     -0.05402227     -0.02037670      0.07697677
    2
 MD step:        2550 time   6.1681550325877499     
 H      0.04980460     -0.12137663     -0.86183937      0.00931797     -0.01966396     -0.09611979
 H     -0.32108565     -0.12555011      0.72751333     -0.05329888     -0.02036856      0.07434244
    2
 MD step:        2600 time   6.2890992489130007     
 H      0.05091813     -0.12375502     -0.87339253      0.00923039     -0.01966494     -0.09554026
 H     -0.32751841     -0.12801342      0.73643265     -0.05321129     -0.02036757      0.07376291
    2
 MD step:        2650 time   6.4100434652382505     
 H      0.05203987     -0.12613332     -0.88496229      0.00918446     -0.01966546     -0.09509867
 H     -0.33395939     -0.13047682      0.74536856     -0.05316537     -0.02036706      0.07332132
    2
 MD step:        2700 time   6.5309876815635004     
 H      0.05310776     -0.12851223     -0.89627922      0.00843862     -0.01967385     -0.09212292
 H     -0.34034651     -0.13293962      0.75405165     -0.05241953     -0.02035866      0.07034557
    2
 MD step:        2750 time   6.6519318978887503     
 H      0.05409275     -0.13089207     -0.90729229      0.00795580     -0.01967928     -0.09026149
 H     -0.34665074     -0.13540148      0.76243087     -0.05193671     -0.02035323      0.06848413
    2
 MD step:        2800 time   6.7728761142140002     
 H      0.05505802     -0.13327213     -0.91821541      0.00803392     -0.01967840     -0.09051815
 H     -0.35293525     -0.13786312      0.77072015     -0.05201483     -0.02035411      0.06874079
    2
 MD step:        2850 time   6.8938203305392500     
 H      0.05601169     -0.13565232     -0.92906650      0.00759010     -0.01968340     -0.08832624
 H     -0.35920816     -0.14032463      0.77893740     -0.05157101     -0.02034911      0.06654889
    2
 MD step:        2900 time   7.0147645468644999     
 H      0.05688138     -0.13803346     -0.93957356      0.00682801     -0.01969197     -0.08563785
 H     -0.36539708     -0.14278519      0.78681061     -0.05080891     -0.02034054      0.06386050
    2
 MD step:        2950 time   7.1357087631897507     
 H      0.05768385     -0.14041535     -0.94983389      0.00655942     -0.01969500     -0.08444690
 H     -0.37151879     -0.14524500      0.79443710     -0.05054032     -0.02033752      0.06266955
    2
 MD step:        3000 time   7.2566529795150005     
 H      0.05848255     -0.14279729     -0.96006647      0.00658850     -0.01969467     -0.08445735
 H     -0.37763673     -0.14770477      0.80203583     -0.05056940     -0.02033784      0.06268000
    2
 MD step:        3050 time   7.3775971958402504     
 H      0.05924631     -0.14517962     -0.97012948      0.00594602     -0.01970190     -0.08174051
 H     -0.38371972     -0.15016414      0.80946499     -0.04992692     -0.02033061      0.05996316
    2
 MD step:        3100 time   7.4985414121655003     
 H      0.05991805     -0.14756298     -0.97985575      0.00521470     -0.01971013     -0.07918136
 H     -0.38971070     -0.15262248      0.81655742     -0.04919561     -0.02032239      0.05740400
    2
 MD step:        3150 time   7.6194856284907502     
 H      0.06053324     -0.14994698     -0.98935539      0.00507574     -0.01971169     -0.07842328
 H     -0.39564512     -0.15508018      0.82342322     -0.04905664     -0.02032082      0.05664592
    2
 MD step:        3200 time   7.7404298448160000     
 H      0.06115034     -0.15233096     -0.99884736      0.00503353     -0.01971217     -0.07809560
 H     -0.40158146     -0.15753790      0.83028134     -0.04901443     -0.02032035      0.05631824
    2
 MD step:        3250 time   7.8613740611412499     
 H      0.06172352     -0.15471543     -1.00815564      0.00437504     -0.01971958     -0.07573066
 H     -0.40747387     -0.15999513      0.83695577     -0.04835595     -0.02031294      0.05395331
    2
 MD step:        3300 time   7.9823182774665007     
 H      0.06220499     -0.15710094     -1.01714219      0.00363999     -0.01972785     -0.07287892
 H     -0.41327458     -0.16245132      0.84330848     -0.04762090     -0.02030467      0.05110157
    2
 MD step:        3350 time   8.1032624937917497     
 H      0.06263277     -0.15948705     -1.02588981      0.00354015     -0.01972897     -0.07230331
 H     -0.41902160     -0.16490691      0.84942225     -0.04752106     -0.02030354      0.05052596
    2
 MD step:        3400 time   8.2242067101170004     
 H      0.06306220     -0.16187314     -1.03463811      0.00349036     -0.01972953     -0.07207178
 H     -0.42477026     -0.16736253      0.85553671     -0.04747127     -0.02030298      0.05029443
    2
 MD step:        3450 time   8.3451509264422494     
 H      0.06345975     -0.16425959     -1.04327778      0.00301835     -0.01973484     -0.07059089
 H     -0.43048705     -0.16981778      0.86154253     -0.04699926     -0.02029767      0.04881354
    2
 MD step:        3500 time   8.4660951427675002     
 H      0.06377907     -0.16664692     -1.05162538      0.00227485     -0.01974321     -0.06736783
 H     -0.43612561     -0.17227215      0.86725629     -0.04625575     -0.02028930      0.04559048
    2
 MD step:        3550 time   8.5870393590927510     
 H      0.06403303     -0.16903498     -1.05968729      0.00201282     -0.01974616     -0.06641653
 H     -0.44169880     -0.17472578      0.87268436     -0.04599373     -0.02028636      0.04463918
    2
 MD step:        3600 time   8.7079835754179999     
 H      0.06427327     -0.17142320     -1.06771396      0.00196837     -0.01974666     -0.06632128
 H     -0.44725828     -0.17717927      0.87807718     -0.04594928     -0.02028586      0.04454393
    2
 MD step:        3650 time   8.8289277917432507     
 H      0.06450845     -0.17381148     -1.07573408      0.00186740     -0.01974779     -0.06604362
 H     -0.45281269     -0.17963269      0.88346346     -0.04584831     -0.02028472      0.04426627
    2
 MD step:        3700 time   8.9498720080684997     
 H      0.06469952     -0.17620025     -1.08356339      0.00121590     -0.01975512     -0.06318215
 H     -0.45832300     -0.18208562      0.88865892     -0.04519681     -0.02027739      0.04140479
    2
 MD step:        3750 time   9.0708162243937505     
 H      0.06480513     -0.17858998     -1.09106910      0.00058310     -0.01976225     -0.06117212
 H     -0.46374785     -0.18453758      0.89353078     -0.04456401     -0.02027027      0.03939476
    2
 MD step:        3800 time   9.1917604407189994     
 H      0.06485809     -0.18098031     -1.09839886      0.00039004     -0.01976442     -0.06034644
 H     -0.46912004     -0.18698896      0.89822670     -0.04437094     -0.02026810      0.03856909
    2
 MD step:        3850 time   9.3127046570442502     
 H      0.06491464     -0.18337060     -1.10572975      0.00052355     -0.01976292     -0.06077856
 H     -0.47449583     -0.18944037      0.90292375     -0.04450446     -0.02026960      0.03900121
    2
 MD step:        3900 time   9.4336488733695010     
 H      0.06496360     -0.18576097     -1.11301759      0.00019331     -0.01976663     -0.05950459
 H     -0.47986402     -0.19189170      0.90757775     -0.04417421     -0.02026588      0.03772723
    2
 MD step:        3950 time   9.5545930896947500     
 H      0.06494722     -0.18815208     -1.12009264     -0.00049824     -0.01977441     -0.05725469
 H     -0.48516688     -0.19434230      0.91201895     -0.04348266     -0.02025810      0.03547733
    2
 MD step:        4000 time   9.6755373060200007     
 H      0.06484886     -0.19054411     -1.12685113     -0.00102609     -0.01978035     -0.05492256
 H     -0.49038775     -0.19679197      0.91614359     -0.04295482     -0.02025216      0.03314520
    2
 MD step:        4050 time   9.7964815223452497     
 H      0.06472073     -0.19293647     -1.13348700     -0.00106377     -0.01978078     -0.05493349
 H     -0.49557886     -0.19924130      0.92014561     -0.04291714     -0.02025174      0.03315614
    2
 MD step:        4100 time   9.9174257386705005     
 H      0.06459273     -0.19532883     -1.14013544     -0.00104257     -0.01978054     -0.05507433
 H     -0.50077010     -0.20169064      0.92416021     -0.04293834     -0.02025197      0.03329698
    2
 MD step:        4150 time   10.038369954995749     
 H      0.06446453     -0.19772120     -1.14679259     -0.00115798     -0.01978184     -0.05459715
 H     -0.50596114     -0.20413998      0.92818352     -0.04282293     -0.02025068      0.03281979
    2
 MD step:        4200 time   10.159314171321000     
 H      0.06428805     -0.20011411     -1.15324258     -0.00181048     -0.01978918     -0.05204370
 H     -0.51110390     -0.20658877      0.93199966     -0.04217043     -0.02024333      0.03026635
    2
 MD step:        4250 time   10.280258387646251     
 H      0.06402854     -0.20250795     -1.15941659     -0.00243958     -0.01979626     -0.05010830
 H     -0.51616362     -0.20903663      0.93553983     -0.04154132     -0.02023625      0.02833095
    2
 MD step:        4300 time   10.401202603971500     
 H      0.06371781     -0.20490237     -1.16540545     -0.00259108     -0.01979796     -0.04933198
 H     -0.52117213     -0.21148391      0.93889484     -0.04138982     -0.02023455      0.02755463
    2
 MD step:        4350 time   10.522146820296751     
 H      0.06341473     -0.20729670     -1.17140948     -0.00244246     -0.01979629     -0.04986579
 H     -0.52618828     -0.21393128      0.94226503     -0.04153845     -0.02023622      0.02808844
    2
 MD step:        4400 time   10.643091036622000     
 H      0.06311547     -0.20969099     -1.17742824     -0.00254421     -0.01979744     -0.04961054
 H     -0.53120825     -0.21637869      0.94564994     -0.04143670     -0.02023508      0.02783319
    2
 MD step:        4450 time   10.764035252947250     
 H      0.06278845     -0.21208560     -1.18336974     -0.00294035     -0.01980189     -0.04820869
 H     -0.53620047     -0.21882578      0.94895760     -0.04104055     -0.02023062      0.02643134
    2
 MD step:        4500 time   10.884979469272501     
 H      0.06239175     -0.21448098     -1.18902908     -0.00359584     -0.01980927     -0.04561532
 H     -0.54112301     -0.22127210      0.95198310     -0.04038506     -0.02022324      0.02383796
    2
 MD step:        4550 time   11.005923685597750     
 H      0.06193081     -0.21687709     -1.19447555     -0.00397833     -0.01981357     -0.04455768
 H     -0.54598130     -0.22371769      0.95479572     -0.04000258     -0.02021894      0.02278033
    2
 MD step:        4600 time   11.126867901923001     
 H      0.06144564     -0.21927347     -1.19984250     -0.00396588     -0.01981343     -0.04447843
 H     -0.55081537     -0.22616301      0.95752883     -0.04001503     -0.02021908      0.02270108
    2
 MD step:        4650 time   11.247812118248250     
 H      0.06097849     -0.22166965     -1.20526402     -0.00380039     -0.01981157     -0.04499874
 H     -0.55566746     -0.22860853      0.96031650     -0.04018052     -0.02022094      0.02322138
    2
 MD step:        4700 time   11.368756334573501     
 H      0.06050985     -0.22406585     -1.21067384     -0.00400427     -0.01981386     -0.04437637
 H     -0.56051805     -0.23105404      0.96309248     -0.03997664     -0.02021865      0.02259902
    2
 MD step:        4750 time   11.489700550898750     
 H      0.05999860     -0.22646253     -1.21596137     -0.00450760     -0.01981953     -0.04269924
 H     -0.56532604     -0.23349906      0.96574616     -0.03947330     -0.02021298      0.02092189
    2
 MD step:        4800 time   11.610644767224001     
 H      0.05941487     -0.22886002     -1.22096522     -0.00509325     -0.01982612     -0.04035773
 H     -0.57006154     -0.23594327      0.96811616     -0.03888765     -0.02020639      0.01858037
    2
 MD step:        4850 time   11.731588983549251     
 H      0.05878093     -0.23125807     -1.22580257     -0.00534959     -0.01982900     -0.03973627
 H     -0.57474684     -0.23838691      0.97031967     -0.03863131     -0.02020351      0.01795892
    2
 MD step:        4900 time   11.852533199874500     
 H      0.05813347     -0.23365628     -1.23060183     -0.00529129     -0.01982835     -0.03985380
 H     -0.57941862     -0.24083041      0.97248509     -0.03868962     -0.02020417      0.01807644
    2
 MD step:        4950 time   11.973477416199751     
 H      0.05750729     -0.23605425     -1.23546759     -0.00510154     -0.01982621     -0.04044458
 H     -0.58411167     -0.24327414      0.97471701     -0.03887937     -0.02020630      0.01866722
    2
 MD step:        5000 time   12.094421632525000     
 H      0.05688291     -0.23845220     -1.24033070     -0.00528075     -0.01982823     -0.03988267
 H     -0.58880653     -0.24571789      0.97694626     -0.03870015     -0.02020428      0.01810532
    2
 MD step:        5050 time   12.215365848850251     
 H      0.05621930     -0.24085059     -1.24508540     -0.00574647     -0.01983347     -0.03841846
 H     -0.59346216     -0.24816120      0.97906712     -0.03823444     -0.02019904      0.01664110
    2
 MD step:        5100 time   12.336310065175500     
 H      0.05548650     -0.24324976     -1.24957653     -0.00633123     -0.01984005     -0.03608920
 H     -0.59804859     -0.25060373      0.98092441     -0.03764967     -0.02019246      0.01431185
    2
 MD step:        5150 time   12.457254281500751     
 H      0.05470148     -0.24564952     -1.25389335     -0.00661031     -0.01984319     -0.03541604
 H     -0.60258281     -0.25304568      0.98260738     -0.03737059     -0.02018932      0.01363869
    2
 MD step:        5200 time   12.578198497826001     
 H      0.05389967     -0.24804946     -1.25816416     -0.00658046     -0.01984285     -0.03542243
 H     -0.60710023     -0.25548743      0.98424435     -0.03740045     -0.02018966      0.01364508
    2
 MD step:        5250 time   12.699142714151250     
 H      0.05311897     -0.25044917     -1.26249830     -0.00634906     -0.01984025     -0.03616904
 H     -0.61163878     -0.25792943      0.98594465     -0.03763185     -0.02019226      0.01439168
    2
 MD step:        5300 time   12.820086930476501     
 H      0.05235088     -0.25284873     -1.26686877     -0.00640121     -0.01984084     -0.03601557
 H     -0.61618992     -0.26037156      0.98768127     -0.03757970     -0.02019168      0.01423822
    2
 MD step:        5350 time   12.941031146801750     
 H      0.05156196     -0.25524853     -1.27119067     -0.00669771     -0.01984417     -0.03516875
 H     -0.62072023     -0.26281346      0.98936933     -0.03728319     -0.02018834      0.01339140
    2
 MD step:        5400 time   13.061975363127001     
 H      0.05071657     -0.25764897     -1.27530044     -0.00729233     -0.01985086     -0.03282595
 H     -0.62519408     -0.26525473      0.99084525     -0.03668857     -0.02018165      0.01104860
    2
 MD step:        5450 time   13.182919579452250     
 H      0.04980606     -0.26005014     -1.27919294     -0.00772588     -0.01985574     -0.03168568
 H     -0.62960281     -0.26769526      0.99210391     -0.03625502     -0.02017677      0.00990833
    2
 MD step:        5500 time   13.303863795777501     
 H      0.04886057     -0.26245170     -1.28298333     -0.00783012     -0.01985692     -0.03120665
 H     -0.63397655     -0.27013540      0.99326045     -0.03615078     -0.02017560      0.00942930
    2
 MD step:        5550 time   13.424808012102751     
 H      0.04792659     -0.26485313     -1.28679874     -0.00760696     -0.01985440     -0.03193835
 H     -0.63836181     -0.27257567      0.99444202     -0.03637395     -0.02017811      0.01016100
    2
 MD step:        5600 time   13.545752228428000     
 H      0.04701354     -0.26725433     -1.29068386     -0.00751978     -0.01985342     -0.03224375
 H     -0.64276799     -0.27501617      0.99569329     -0.03646112     -0.02017909      0.01046640
    2
 MD step:        5650 time   13.666696444753251     
 H      0.04610436     -0.26965548     -1.29459564     -0.00754681     -0.01985373     -0.03227931
 H     -0.64717805     -0.27745672      0.99697122     -0.03643409     -0.02017879      0.01050195
    2
 MD step:        5700 time   13.787640661078500     
 H      0.04516999     -0.27205692     -1.29840795     -0.00797989     -0.01985860     -0.03053918
 H     -0.65156291     -0.27989698      0.99814969     -0.03600102     -0.02017391      0.00876182
    2
 MD step:        5750 time   13.908584877403751     
 H      0.04416838     -0.27445911     -1.30199806     -0.00857371     -0.01986528     -0.02891404
 H     -0.65588054     -0.28233649      0.99910596     -0.03540720     -0.02016723      0.00713669
    2
 MD step:        5800 time   14.029529093729000     
 H      0.04310441     -0.27686201     -1.30540227     -0.00894592     -0.01986947     -0.02752327