    2
 MD step:           0 time   0.0000000000000000     
 H      0.00000000      0.00000000     -0.37000000     -0.02493576     -0.02411929     -0.02917636
 H      0.00000000      0.00000000      0.37000000      0.00867944      0.02489660      0.03730543
    2
 MD step:          50 time  0.12094421632525000     
 H     -0.00301994     -0.00291710     -0.37353663     -0.02507942     -0.02411974     -0.02940722
 H      0.00105383      0.00301111      0.37451979      0.00882310      0.02489704      0.03753629
    2
 MD step:         100 time  0.24188843265050000     
 H     -0.00605980     -0.00583454     -0.37712509     -0.02523135     -0.02412752     -0.03015329
 H      0.00212758      0.00602256      0.37909142      0.00897503      0.02490482      0.03828236
    2
 MD step:         150 time  0.36283264897575002     
 H     -0.00914272     -0.00875403     -0.38087832     -0.02558946     -0.02415783     -0.03199707
 H      0.00324439      0.00903607      0.38382782      0.00933314      0.02493513      0.04012614
    2
 MD step:         200 time  0.48377686530100000     
 H     -0.01228845     -0.01167922     -0.38492989     -0.02630299     -0.02422119     -0.03499708
 H      0.00442402      0.01205526      0.38886255      0.01004667      0.02499849      0.04312615
    2
 MD step:         250 time  0.60472108162625005     
 H     -0.01551141     -0.01461466     -0.38938313     -0.02718429     -0.02431930     -0.03868513
 H      0.00568086      0.01508471      0.39429895      0.01092796      0.02509661      0.04681420
    2
 MD step:         300 time  0.72566529795150003     
 H     -0.01882719     -0.01756412     -0.39428771     -0.02792884     -0.02444849     -0.04247466
 H      0.00703055      0.01812818      0.40018669      0.01167251      0.02522579      0.05060373
    2
 MD step:         350 time  0.84660951427675002     
 H     -0.02224976     -0.02052953     -0.39964276     -0.02859028     -0.02459531     -0.04606059
 H      0.00848700      0.02118760      0.40652491      0.01233396      0.02537261      0.05418966
    2
 MD step:         400 time  0.96755373060200001     
 H     -0.02578030     -0.02351142     -0.40541429     -0.02948625     -0.02473175     -0.04931733
 H      0.01005143      0.02426350      0.41327960      0.01322993      0.02550905      0.05744640
    2
 MD step:         450 time   1.0884979469272500     
 H     -0.02941062     -0.02651041     -0.41156725     -0.03058347     -0.02485590     -0.05234380
 H      0.01171565      0.02735650      0.42041572      0.01432715      0.02563320      0.06047287
    2
 MD step:         500 time   1.2094421632525001     
 H     -0.03314325     -0.02952781     -0.41809143     -0.03147532     -0.02502228     -0.05557427
 H      0.01348216      0.03046791      0.42792307      0.01521900      0.02579959      0.06370334
    2
 MD step:         550 time   1.3303863795777500     
 H     -0.03699488     -0.03256632     -0.42501450     -0.03217927     -0.02526210     -0.05931558
 H      0.01536769      0.03360043      0.43582930      0.01592295      0.02603940      0.06744465
    2
 MD step:         600 time   1.4513305959030001     
 H     -0.04097289     -0.03563619     -0.43244747     -0.03323955     -0.02555221     -0.06376168
 H      0.01737960      0.03676432      0.44424543      0.01698323      0.02632951      0.07189075
    2
 MD step:         650 time   1.5722748122282502     
 H     -0.04506883     -0.03875876     -0.44059051     -0.03462747     -0.02604966     -0.07058874
 H      0.01950942      0.03998090      0.45337164      0.01837115      0.02682696      0.07871781
    2
 MD step:         700 time   1.6932190285535000     
 H     -0.04928619     -0.04195717     -0.44964844     -0.03553900     -0.02694093     -0.08055616
 H      0.02176067      0.04327331      0.46341274      0.01928268      0.02771824      0.08868522
    2
 MD step:         750 time   1.8141632448787501     
 H     -0.05364106     -0.04527014     -0.45997626     -0.03604992     -0.02796205     -0.09082919
 H      0.02414944      0.04668029      0.47472372      0.01979360      0.02873935      0.09895826
    2
 MD step:         800 time   1.9351074612040000     
 H     -0.05808926     -0.04875272     -0.47197226     -0.03720282     -0.02952889     -0.10622045
 H      0.02663153      0.05025688      0.48770288      0.02094651      0.03030619      0.11434952
    2
 MD step:         850 time   2.0560516775292501     
 H     -0.06255193     -0.05241249     -0.48554929     -0.03723699     -0.03117947     -0.12044961
 H      0.02912810      0.05401067      0.50226307      0.02098066      0.03195677      0.12857868
    2
 MD step:         900 time   2.1769958938545000     
 H     -0.06708568     -0.05628713     -0.50100887     -0.03713547     -0.03265702     -0.13255950
 H      0.03169573      0.05797932      0.51870582      0.02087914      0.03343433      0.14068856
    2
 MD step:         950 time   2.2979401101797499     
 H     -0.07162971     -0.06030020     -0.51759730     -0.03834912     -0.03378174     -0.14264527
 H      0.03427365      0.06208639      0.53627742      0.02209279      0.03455904      0.15077433
    2
 MD step:        1000 time   2.4188843265050002     
 H     -0.07629677     -0.06443450     -0.53525132     -0.03906093     -0.03439151     -0.14802132
 H      0.03697460      0.06631470      0.55491460      0.02280460      0.03516881      0.15615038
    2
 MD step:        1050 time   2.5398285428302501     
 H     -0.08113165     -0.06860803     -0.55336794     -0.04051501     -0.03471711     -0.15185694
 H      0.03984337      0.07058224      0.57401438      0.02425869      0.03549442      0.15998600
    2
 MD step:        1100 time   2.6607727591554999     
 H     -0.08609516     -0.07284832     -0.57209442     -0.04180171     -0.03535662     -0.15770287
 H      0.04284078      0.07491654      0.59372403      0.02554538      0.03613393      0.16583193
    2
 MD step:        1150 time   2.7817169754807503     
 H     -0.09112955     -0.07714376     -0.59128019     -0.04105918     -0.03575266     -0.15969381
 H      0.04590906      0.07930600      0.61389296      0.02480286      0.03652996      0.16782289
    2
 MD step:        1200 time   2.9026611918060001     
 H     -0.09612237     -0.08153514     -0.61107648     -0.04165943     -0.03689136     -0.16796771
 H      0.04893577      0.08379138      0.63467242      0.02540312      0.03766866      0.17609679
    2
 MD step:        1250 time   3.0236054081312500     
 H     -0.10112823     -0.08602691     -0.63155732     -0.04127329     -0.03718628     -0.16953753
 H      0.05197553      0.08837717      0.65613642      0.02501699      0.03796358      0.17766662
    2
 MD step:        1300 time   3.1445496244565003     
 H     -0.10620871     -0.09051870     -0.65211382     -0.04260752     -0.03716038     -0.17070043
 H      0.05508990      0.09296297      0.67767609      0.02635122      0.03793768      0.17882952
    2
 MD step:        1350 time   3.2654938407817502     
 H     -0.11138424     -0.09503837     -0.67294152     -0.04319308     -0.03764484     -0.17433661
 H      0.05829932      0.09757665      0.69948695      0.02693678      0.03842214      0.18246569
    2
 MD step:        1400 time   3.3864380571070001     
 H     -0.11662925     -0.09961238     -0.69417876     -0.04284369     -0.03784910     -0.17525912
 H      0.06157823      0.10224467      0.72170736      0.02658738      0.03862641      0.18338821
    2
 MD step:        1450 time   3.5073822734322500     
 H     -0.12172232     -0.10418470     -0.71525411     -0.04206219     -0.03786712     -0.17458173
 H      0.06470519      0.10691100      0.74376587      0.02580589      0.03864442      0.18271082
    2
 MD step:        1500 time   3.6283264897575003     
 H     -0.12687063     -0.10878761     -0.73656841     -0.04284506     -0.03823006     -0.17753610
 H      0.06788740      0.11160791      0.76606334      0.02658876      0.03900736      0.18566519
    2
 MD step:        1550 time   3.7492707060827501     
 H     -0.13209598     -0.11342127     -0.75814276     -0.04376651     -0.03833891     -0.17910115
 H      0.07114664      0.11633559      0.78862086      0.02751021      0.03911622      0.18723024
    2
 MD step:        1600 time   3.8702149224080000     
 H     -0.13736739     -0.11804231     -0.77969009     -0.04278295     -0.03803911     -0.17637815
 H      0.07445195      0.12105064      0.81115135      0.02652665      0.03881642      0.18450723
    2
 MD step:        1650 time   3.9911591387332503     
 H     -0.14248609     -0.12264608     -0.80098428     -0.04248026     -0.03821774     -0.17709439
 H      0.07760454      0.12574842      0.83342871      0.02622395      0.03899505      0.18522347
    2
 MD step:        1700 time   4.1121033550585002     
 H     -0.14767661     -0.12729441     -0.82260369     -0.04316334     -0.03861879     -0.18004813
 H      0.08082895      0.13049076      0.85603129      0.02690703      0.03939610      0.18817721
    2
 MD step:        1750 time   4.2330475713837501     
 H     -0.15294315     -0.13198182     -0.84451924     -0.04405522     -0.03887016     -0.18234673
 H      0.08412938      0.13527218      0.87893000      0.02779891      0.03964747      0.19047581
    2
 MD step:        1800 time   4.3539917877090000     
 H     -0.15823951     -0.13667631     -0.86650456     -0.04293611     -0.03864231     -0.17997074
 H      0.08745964      0.14006068      0.90189848      0.02667979      0.03941962      0.18809982
    2
 MD step:        1850 time   4.4749360040342498     
 H     -0.16336866     -0.14132870     -0.88809102     -0.04254058     -0.03838149     -0.17814488
 H      0.09062268      0.14480708      0.92446811      0.02628427      0.03915879      0.18627396
    2
 MD step:        1900 time   4.5958802203594997     
 H     -0.16857120     -0.14597392     -0.90971149     -0.04323741     -0.03847430     -0.17934378
 H      0.09385912      0.14954631      0.94707174      0.02698110      0.03925160      0.18747285
    2
 MD step:        1950 time   4.7168244366847505     
 H     -0.17381128     -0.15065098     -0.93154084     -0.04354026     -0.03892703     -0.18207658
 H      0.09713309      0.15431738      0.96988426      0.02728395      0.03970433      0.19020566
    2
 MD step:        2000 time   4.8377686530100004     
 H     -0.17909154     -0.15538860     -0.95373424     -0.04355352     -0.03933598     -0.18426865
 H      0.10044724      0.15914901      0.99306082      0.02729721      0.04011328      0.19239774
    2
 MD step:        2050 time   4.9587128693352502     
 H     -0.18434414     -0.16013906     -0.97596863     -0.04362775     -0.03914518     -0.18333728
 H      0.10373373      0.16399348      1.01627838      0.02737144      0.03992248      0.19146637
    2
 MD step:        2100 time   5.0796570856605001     
 H     -0.18966087     -0.16484813     -0.99804966     -0.04383808     -0.03870115     -0.18122268
 H      0.10708436      0.16879656      1.03934258      0.02758177      0.03947846      0.18935177
    2
 MD step:        2150 time   5.2006013019857500     
 H     -0.19487048     -0.16951068     -1.01978073     -0.04259099     -0.03851963     -0.17902984
 H      0.11032786      0.17355312      1.06205681      0.02633468      0.03929694      0.18715892
    2
 MD step:        2200 time   5.3215455183109999     
 H     -0.20006648     -0.17418293     -1.04154805     -0.04346082     -0.03875635     -0.18112098
 H      0.11355775      0.17831938      1.08480729      0.02720451      0.03953365      0.18925006
    2
 MD step:        2250 time   5.4424897346362506     
 H     -0.20534290     -0.17888847     -1.06356694     -0.04363654     -0.03909028     -0.18300760
 H      0.11686806      0.18311893      1.10780935      0.02738023      0.03986759      0.19113668
    2
 MD step:        2300 time   5.5634339509615005     
 H     -0.21062578     -0.18364105     -1.08583256     -0.04387406     -0.03948395     -0.18524980
 H      0.12018484      0.18796552      1.13105813      0.02761774      0.04026125      0.19337888
    2
 MD step:        2350 time   5.6843781672867504     
 H     -0.21598400     -0.18843751     -1.10839627     -0.04463089     -0.03982922     -0.18775372
 H      0.12357695      0.19285599      1.15460501      0.02837458      0.04060653      0.19588280
    2
 MD step:        2400 time   5.8053223836120003     
 H     -0.22136061     -0.19326804     -1.13115033     -0.04411118     -0.03997370     -0.18796183
 H      0.12698746      0.19778053      1.17834223      0.02785487      0.04075101      0.19609091
    2
 MD step:        2450 time   5.9262665999372501     
 H     -0.22669558     -0.19808935     -1.15381677     -0.04442760     -0.03972575     -0.18703864
 H      0.13035632      0.20269585      1.20199184      0.02817129      0.04050305      0.19516772
    2
 MD step:        2500 time   6.0472108162625000     
 H     -0.23208585     -0.20287400     -1.17635569     -0.04424954     -0.03938702     -0.18517595
 H      0.13378048      0.20757451      1.22551393      0.02799323      0.04016432      0.19330504
    2
 MD step:        2550 time   6.1681550325877499     
 H     -0.23736480     -0.20762706     -1.19862653     -0.04340703     -0.03928708     -0.18383802
 H      0.13709333      0.21242159      1.24876793      0.02715072      0.04006438      0.19196710
    2
 MD step:        2600 time   6.2890992489130007     
 H     -0.24266861     -0.21238481     -1.22094518     -0.04429507     -0.03939362     -0.18525052
 H      0.14043103      0.21727334      1.27206975      0.02803876      0.04017093      0.19337960
    2
 MD step:        2650 time   6.4100434652382505     
 H     -0.24801726     -0.21715873     -1.24338813     -0.04394680     -0.03955614     -0.18569833
 H      0.14381357      0.22214128      1.29549586      0.02769049      0.04033344      0.19382741
    2
 MD step:        2700 time   6.5309876815635004     
 H     -0.25331949     -0.22194520     -1.26584603     -0.04404682     -0.03956215     -0.18582806
 H      0.14714970      0.22702175      1.31893693      0.02779051      0.04033946      0.19395714
    2
 MD step:        2750 time   6.6519318978887503     
 H     -0.25869305     -0.22672506     -1.28834317     -0.04448219     -0.03945926     -0.18576419
 H      0.15055715      0.23189563      1.34241724      0.02822588      0.04023657      0.19389327
    2
 MD step:        2800 time   6.7728761142140002     
 H     -0.26399642     -0.23148315     -1.31066467     -0.04330997     -0.03923303     -0.18349832
 H      0.15389441      0.23674772      1.36572190      0.02705366      0.04001033      0.19162740
    2
 MD step:        2850 time   6.8938203305392500     
 H     -0.26926326     -0.23622214     -1.33285751     -0.04399367     -0.03914596     -0.18376280
 H      0.15719515      0.24158072      1.38889791      0.02773736      0.03992326      0.19189188
    2
 MD step:        2900 time   7.0147645468644999     
 H     -0.27459047     -0.24095529     -1.35508262     -0.04378300     -0.03915153     -0.18357856
 H      0.16055625      0.24640789      1.41210618      0.02752669      0.03992883      0.19170764
    2
 MD step:        2950 time   7.1357087631897507     
 H     -0.27985030     -0.24569392     -1.37726656     -0.04349492     -0.03918807     -0.18346521
 H      0.16384997      0.25124053      1.43527329      0.02723860      0.03996538      0.19159429
    2
 MD step:        3000 time   7.2566529795150005     
 H     -0.28516520     -0.25043177     -1.39950187     -0.04424756     -0.03915310     -0.18405150
 H      0.16719877      0.25607239      1.45849176      0.02799124      0.03993040      0.19218058
    2
 MD step:        3050 time   7.3775971958402504     
 H     -0.29046505     -0.25515939     -1.42167354     -0.04323927     -0.03900583     -0.18234518
 H      0.17053251      0.26089401      1.48164659      0.02698296      0.03978313      0.19047426
    2
 MD step:        3100 time   7.4985414121655003     
 H     -0.29569273     -0.25986928     -1.44368916     -0.04356851     -0.03889209     -0.18213692
 H      0.17379408      0.26569791      1.50464538      0.02731220      0.03966939      0.19026600
    2
 MD step:        3150 time   7.6194856284907502     
 H     -0.30099240     -0.26456847     -1.46572628     -0.04371158     -0.03883130     -0.18199362
 H      0.17712764      0.27049111      1.52766566      0.02745527      0.03960860      0.19012270
    2
 MD step:        3200 time   7.7404298448160000     
 H     -0.30622668     -0.26926570     -1.48768880     -0.04305173     -0.03883843     -0.18136731
 H      0.18039582      0.27528236      1.55061135      0.02679542      0.03961573      0.18949639
    2
 MD step:        3250 time   7.8613740611412499     
 H     -0.31147995     -0.27396074     -1.50966001     -0.04386534     -0.03879886     -0.18199579
 H      0.18368298      0.28007140      1.57356573      0.02760903      0.03957616      0.19012487
    2
 MD step:        3300 time   7.9823182774665007     
 H     -0.31676308     -0.27864852     -1.53162722     -0.04318568     -0.03870524     -0.18087958
 H      0.18700000      0.28485320      1.59651610      0.02692937      0.03948254      0.18900866
    2
 MD step:        3350 time   8.1032624937917497     
 H     -0.32195588     -0.28332348     -1.55344437     -0.04309220     -0.03861318     -0.18035789
 H      0.19022670      0.28962216      1.61931641      0.02683589      0.03939048      0.18848697
    2
 MD step:        3400 time   8.2242067101170004     
 H     -0.32721669     -0.28798956     -1.57528833     -0.04362069     -0.03855267     -0.18060579
 H      0.19352140      0.29438226      1.64214354      0.02736438      0.03932997      0.18873487
    2
 MD step:        3450 time   8.3451509264422494     
 H     -0.33243843     -0.29265114     -1.59707233     -0.04276647     -0.03853298     -0.17966053
 H      0.19677704      0.29913785      1.66491071      0.02651016      0.03931029      0.18778961
    2
 MD step:        3500 time   8.4660951427675002     
 H     -0.33763630     -0.29730840     -1.61881252     -0.04341406     -0.03847955     -0.18006171
 H      0.20000880      0.30388912      1.68763407      0.02715775      0.03925685      0.18819079
    2
 MD step:        3550 time   8.5870393590927510     
 H     -0.34289536     -0.30195828     -1.64057991     -0.04316273     -0.03840622     -0.17947313
 H      0.20330175      0.30863300      1.71038462      0.02690642      0.03918352      0.18760221
    2
 MD step:        3600 time   8.7079835754179999     
 H     -0.34806421     -0.30659859     -1.66221315     -0.04266066     -0.03833714     -0.17865411
 H      0.20650449      0.31336733      1.73300102      0.02640435      0.03911444      0.18678319
    2
 MD step:        3650 time   8.8289277917432507     
 H     -0.35327829     -0.31123243     -1.68386199     -0.04344091     -0.03829146     -0.17922532
 H      0.20975247      0.31809518      1.75563303      0.02718460      0.03906876      0.18735441
    2
 MD step:        3700 time   8.9498720080684997     
 H     -0.35849251     -0.31586161     -1.70548959     -0.04262988     -0.03825859     -0.17826421
 H      0.21300058      0.32281836      1.77824380      0.02637357      0.03903589      0.18639330
    2
 MD step:        3750 time   9.0708162243937505     
 H     -0.36364562     -0.32048535     -1.72703137     -0.04293390     -0.03819966     -0.17829985
 H      0.21618758      0.32753612      1.80076874      0.02667759      0.03897696      0.18642893
    2
 MD step:        3800 time   9.1917604407189994     
 H     -0.36887302     -0.32510158     -1.74861320     -0.04313768     -0.03813527     -0.17821107
 H      0.21944888      0.33224635      1.82333374      0.02688136      0.03891257      0.18634015
    2
 MD step:        3850 time   9.3127046570442502     
 H     -0.37402970     -0.32971018     -1.77008974     -0.04233929     -0.03808117     -0.17716737
 H      0.22263945      0.33694897      1.84579344      0.02608298      0.03885847      0.18529646
    2
 MD step:        3900 time   9.4336488733695010     
 H     -0.37919497     -0.33431361     -1.79155143     -0.04315270     -0.03804378     -0.17781162
 H      0.22583861      0.34164641      1.86823830      0.02689639      0.03882108      0.18594070
    2
 MD step:        3950 time   9.5545930896947500     
 H     -0.38439967     -0.33891259     -1.81303243     -0.04260453     -0.03800620     -0.17709383
 H      0.22907720      0.34633940      1.89070246      0.02634822      0.03878351      0.18522291
    2
 MD step:        4000 time   9.6755373060200007     
 H     -0.38952152     -0.34350601     -1.83440552     -0.04247690     -0.03795162     -0.17672032
 H      0.23223295      0.35102683      1.91305871      0.02622059      0.03872893      0.18484940
    2
 MD step:        4050 time   9.7964815223452497     
 H     -0.39471017     -0.34809268     -1.85581502     -0.04306272     -0.03789646     -0.17705812
 H      0.23545549      0.35570751      1.93545138      0.02680641      0.03867376      0.18518720
    2
 MD step:        4100 time   9.9174257386705005     
 H     -0.39986305     -0.35267311     -1.87716074     -0.04215744     -0.03785134     -0.17595038
 H      0.23864226      0.36038195      1.95778027      0.02590113      0.03862864      0.18407946
    2
 MD step:        4150 time   10.038369954995749     
 H     -0.40498381     -0.35724875     -1.89845284     -0.04277580     -0.03781380     -0.17640059
 H      0.24179692      0.36505160      1.98005553      0.02651949      0.03859110      0.18452967
    2
 MD step:        4200 time   10.159314171321000     
 H     -0.41017198     -0.36181979     -1.91979180     -0.04263391     -0.03777446     -0.17608287
 H      0.24501898      0.36971665      2.00237766      0.02637760      0.03855176      0.18421195
    2
 MD step:        4250 time   10.280258387646251     
 H     -0.41527663     -0.36638558     -1.94102378     -0.04209720     -0.03772797     -0.17533874
 H      0.24815753      0.37437645      2.02459280      0.02584089      0.03850527      0.18346782
    2
 MD step:        4300 time   10.401202603971500     
 H     -0.42042192     -0.37094585     -1.96227178     -0.04289959     -0.03768338     -0.17594255
 H      0.25133671      0.37903073      2.04682397      0.02664328      0.03846069      0.18407163
    2
 MD step:        4350 time   10.522146820296751     
 H     -0.42557355     -0.37550096     -1.98350318     -0.04210638     -0.03764368     -0.17497283
 H      0.25452223      0.38367986      2.06903853      0.02585007      0.03842099      0.18310191
    2
 MD step:        4400 time   10.643091036622000     
 H     -0.43065930     -0.38005142     -2.00464802     -0.04235871     -0.03760483     -0.17505272
 H      0.25764188      0.38832432      2.09116654      0.02610240      0.03838213      0.18318180
    2
 MD step:        4450 time   10.764035252947250     
 H     -0.43582188     -0.38459715     -2.02584870     -0.04265485     -0.03756559     -0.17517495
 H      0.26083834      0.39296406      2.11335039      0.02639854      0.03834289      0.18330403
    2
 MD step:        4500 time   10.884979469272501     
 H     -0.44092120     -0.38913804     -2.04696475     -0.04183792     -0.03752572     -0.17418167
 H      0.26397156      0.39759896      2.13544960      0.02558161      0.03830302      0.18231075
    2
 MD step:        4550 time   11.005923685597750     
 H     -0.44602283     -0.39367430     -2.06806262     -0.04263450     -0.03748848     -0.17481378
 H      0.26710709      0.40222923      2.15753063      0.02637819      0.03826579      0.18294287
    2
 MD step:        4600 time   11.126867901923001     
 H     -0.45116967     -0.39820612     -2.08918608     -0.04214780     -0.03745238     -0.17416789
 H      0.27028782      0.40685506      2.17963726      0.02589149      0.03822968      0.18229697
    2
 MD step:        4650 time   11.247812118248250     
 H     -0.45623294     -0.40273354     -2.11020660     -0.04196160     -0.03741536     -0.17381866
 H      0.27338498      0.41147649      2.20164095      0.02570529      0.03819266      0.18194774
    2
 MD step:        4700 time   11.368756334573501     
 H     -0.46136160     -0.40725648     -2.13127282     -0.04261142     -0.03737864     -0.17430706
 H      0.27654754      0.41609345      2.22369033      0.02635511      0.03815594      0.18243614
    2
 MD step:        4750 time   11.489700550898750     
 H     -0.46646273     -0.41177505     -2.15229227     -0.04171686     -0.03734328     -0.17325728
 H      0.27968256      0.42070602      2.24569294      0.02546055      0.03812058      0.18138636
    2
 MD step:        4800 time   11.610644767224001     
 H     -0.47152585     -0.41628945     -2.17325544     -0.04228777     -0.03730942     -0.17367976
 H      0.28277958      0.42531443      2.26763928      0.02603146      0.03808672      0.18180885
    2
 MD step:        4850 time   11.731588983549251     
 H     -0.47665993     -0.42079978     -2.19427176     -0.04222563     -0.03727594     -0.17347107
 H      0.28594755      0.42991878      2.28963877      0.02596932      0.03805324      0.18160016
    2
 MD step:        4900 time   11.852533199874500     
 H     -0.48171358     -0.42530605     -2.21518984     -0.04164165     -0.03724220     -0.17273959
 H      0.28903509      0.43451905      2.31154001      0.02538534      0.03801950      0.18086867
    2
 MD step:        4950 time   11.973477416199751     
 H     -0.48680324     -0.42980827     -2.23612628     -0.04246794     -0.03720916     -0.17342165
 H      0.29215864      0.43911529      2.33345962      0.02621163      0.03798646      0.18155073
    2
 MD step:        5000 time   12.094421632525000     
 H     -0.49190715     -0.43430656     -2.25705979     -0.04171934     -0.03717712     -0.17253337
 H      0.29529645      0.44370758      2.35537629      0.02546303      0.03795442      0.18066245
    2
 MD step:        5050 time   12.215365848850251     
 H     -0.49694156     -0.43880100     -2.27790707     -0.04190690     -0.03714552     -0.17258337
 H      0.29836475      0.44829604      2.37720674      0.02565059      0.03792283      0.18071245
    2
 MD step:        5100 time   12.336310065175500     
 H     -0.50205314     -0.44329165     -2.29881500     -0.04227785     -0.03711435     -0.17281875
 H      0.30151022      0.45288069      2.39909784      0.02602154      0.03789165      0.18094783
    2
 MD step:        5150 time   12.457254281500751     
 H     -0.50710752     -0.44777855     -2.31964943     -0.04144056     -0.03708364     -0.17184811
 H      0.30459850      0.45746160      2.42091543      0.02518424      0.03786095      0.17997720
    2
 MD step:        5200 time   12.578198497826001     
 H     -0.51215813     -0.45226179     -2.34046423     -0.04221963     -0.03705380     -0.17249773
 H      0.30768300      0.46203885      2.44271340      0.02596332      0.03783110      0.18062681
    2
 MD step:        5250 time   12.699142714151250     
 H     -0.51726007     -0.45674145     -2.36131485     -0.04180367     -0.03702445     -0.17195464
 H      0.31081883      0.46661253      2.46454718      0.02554736      0.03780175      0.18008372
    2
 MD step:        5300 time   12.820086930476501     
 H     -0.52227816     -0.46121757     -2.38206626     -0.04155154     -0.03699516     -0.17157578
 H      0.31387081      0.47118266      2.48628176      0.02529523      0.03777247      0.17970486
    2
 MD step:        5350 time   12.941031146801750     
 H     -0.52735862     -0.46569017     -2.40286484     -0.04225150     -0.03696631     -0.17215102
 H      0.31698516      0.47574927      2.50806350      0.02599519      0.03774361      0.18028010
    2
 MD step:        5400 time   13.061975363127001     
 H     -0.53241915     -0.47015933     -2.42362859     -0.04137211     -0.03693823     -0.17115042
 H      0.32007959      0.48031243      2.52981042      0.02511580      0.03771553      0.17927950
    2
 MD step:        5450 time   13.182919579452250     
 H     -0.53743621     -0.47462512     -2.44433439     -0.04189294     -0.03691068     -0.17155244
 H      0.32313055      0.48487224      2.55149938      0.02563663      0.03768798      0.17968152
    2
 MD step:        5500 time   13.303863795777501     
 H     -0.54252737     -0.47908761     -2.46510002     -0.04191094     -0.03688348     -0.17145331
 H      0.32625560      0.48942874      2.57324818      0.02565463      0.03766079      0.17958239
    2
 MD step:        5550 time   13.424808012102751     
 H     -0.54754135     -0.48354682     -2.48577436     -0.04127797     -0.03685656     -0.17070451
 H      0.32930347      0.49398195      2.59490569      0.02502166      0.03763387      0.17883359
    2
 MD step:        5600 time   13.545752228428000     
 H     -0.55258584     -0.48800281     -2.50646538     -0.04211782     -0.03683025     -0.17143125
 H      0.33238185      0.49853196      2.61657987      0.02586150      0.03760755      0.17956033
    2
 MD step:        5650 time   13.666696444753251     
 H     -0.55765203     -0.49245565     -2.52716457     -0.04141849     -0.03680445     -0.17062114
 H      0.33548194      0.50307881      2.63826222      0.02516218      0.03758175      0.17875022
    2
 MD step:        5700 time   13.787640661078500     
 H     -0.56264554     -0.49690537     -2.54777768     -0.04153830     -0.03677863     -0.17063019
 H      0.33850933      0.50762254      2.65985850      0.02528199      0.03755593      0.17875927
    2
 MD step:        5750 time   13.908584877403751     
 H     -0.56771574     -0.50135199     -2.56845419     -0.04197892     -0.03675315     -0.17096164
 H      0.34161343      0.51216317      2.68151817      0.02572261      0.03753045      0.17909072
    2
 MD step:        5800 time   14.029529093729000     
 H     -0.57273482     -0.50579557     -2.58906654     -0.04112403     -0.03672843     -0.17000096