    2
 MD step:           0 time   0.0000000000000000     
 H      0.00000000      0.00000000     -0.37000000     -0.00370960      0.00280871      0.00604812
 H      0.00000000      0.00000000      0.37000000     -0.01692441     -0.03331072      0.02575737
    2
 MD step:          50 time  0.12094421632525000     
 H     -0.00044864      0.00033975     -0.36929460     -0.00370890      0.00281062      0.00524199
 H     -0.00204693     -0.00402879      0.37314129     -0.01692511     -0.03331263      0.02656350
    2
 MD step:         100 time  0.24188843265050000     
 H     -0.00089681      0.00068075     -0.36879967     -0.00369927      0.00283693      0.00205583
 H     -0.00409432     -0.00805884      0.37649305     -0.01693474     -0.03333894      0.02974966
    2
 MD step:         150 time  0.36283264897575002     
 H     -0.00134250      0.00102857     -0.36893744     -0.00366323      0.00293544     -0.00517297
 H     -0.00614420     -0.01209569      0.38047751     -0.01697078     -0.03343746      0.03697846
    2
 MD step:         200 time  0.48377686530100000     
 H     -0.00178140      0.00139491     -0.37024868     -0.00358312      0.00315440     -0.01699039
 H     -0.00820086     -0.01615108      0.38563544     -0.01705089     -0.03365642      0.04879588
    2
 MD step:         250 time  0.60472108162625005     
 H     -0.00220737      0.00179662     -0.37324685     -0.00345048      0.00351694     -0.03268699
 H     -0.01027045     -0.02024183      0.39248030     -0.01718353     -0.03401895      0.06449248
    2
 MD step:         300 time  0.72566529795150003     
 H     -0.00261359      0.00225230     -0.37831209     -0.00326375      0.00402732     -0.05108017
 H     -0.01235980     -0.02438655      0.40139223     -0.01737026     -0.03452934      0.08288566
    2
 MD step:         350 time  0.84660951427675002     
 H     -0.00299329      0.00278045     -0.38570679     -0.00301862      0.00469733     -0.07134871
 H     -0.01447566     -0.02860375      0.41263362     -0.01761539     -0.03519934      0.10315420
    2
 MD step:         400 time  0.96755373060200001     
 H     -0.00334017      0.00339834     -0.39560751     -0.00270609      0.00555155     -0.09320951
 H     -0.01662435     -0.03291068      0.42638103     -0.01792792     -0.03605356      0.12501500
    2
 MD step:         450 time   1.0884979469272500     
 H     -0.00364690      0.00412595     -0.40821785     -0.00232919      0.00658171     -0.11642280
 H     -0.01881318     -0.03732733      0.44283806     -0.01830482     -0.03708372      0.14822829
    2
 MD step:         500 time   1.2094421632525001     
 H     -0.00390165      0.00499564     -0.42389812     -0.00187986      0.00780984     -0.14184434
 H     -0.02105399     -0.04188606      0.46236503     -0.01875415     -0.03831185      0.17364983
    2
 MD step:         550 time   1.3303863795777500     
 H     -0.00409200      0.00604136     -0.44288386     -0.00125909      0.00950658     -0.17266265
 H     -0.02335921     -0.04662082      0.48519745     -0.01937493     -0.04000859      0.20446813
    2
 MD step:         600 time   1.4513305959030001     
 H     -0.00421051      0.00728342     -0.46520107     -0.00069707      0.01104273     -0.19628505
 H     -0.02573627     -0.05155193      0.51136135     -0.01993695     -0.04154474      0.22809053
    2
 MD step:         650 time   1.5722748122282502     
 H     -0.00425945      0.00871563     -0.49051251     -0.00014376      0.01255506     -0.22035542
 H     -0.02818288     -0.05667317      0.54051948     -0.02049025     -0.04305707      0.25216093
    2
 MD step:         700 time   1.6932190285535000     
 H     -0.00425927      0.01028212     -0.51791620      0.00011130      0.01325220     -0.23238988
 H     -0.03067863     -0.06192871      0.57176986     -0.02074531     -0.04375421      0.26419539
    2
 MD step:         750 time   1.8141632448787501     
 H     -0.00423124      0.01192469     -0.54671224      0.00037462      0.01397192     -0.24399759
 H     -0.03320222     -0.06726032      0.60441259     -0.02100863     -0.04447393      0.27580309
    2
 MD step:         800 time   1.9351074612040000     
 H     -0.00416730      0.01366546     -0.57702390      0.00066398      0.01476281     -0.25602595
 H     -0.03576173     -0.07269013      0.63857094     -0.02129799     -0.04526482      0.28783145
    2
 MD step:         850 time   2.0560516775292501     
 H     -0.00407620      0.01548043     -0.60821663      0.00083496      0.01523014     -0.25989541
 H     -0.03834839     -0.07819414      0.67361037     -0.02146897     -0.04573216      0.29170091
    2
 MD step:         900 time   2.1769958938545000     
 H     -0.00396406      0.01735292     -0.64015879      0.00102308      0.01574432     -0.26839026
 H     -0.04095610     -0.08375568      0.70939922     -0.02165709     -0.04624634      0.30019577
    2
 MD step:         950 time   2.2979401101797499     
 H     -0.00382866      0.01928900     -0.67306318      0.00121601      0.01627165     -0.27603703
 H     -0.04358706     -0.08938079      0.74615030     -0.02185002     -0.04677367      0.30784254
    2
 MD step:        1000 time   2.4188843265050002     
 H     -0.00367268      0.02128131     -0.70677880      0.00133462      0.01659583     -0.27947332
 H     -0.04623861     -0.09506215      0.78371261     -0.02196863     -0.04709784      0.31127884
    2
 MD step:        1050 time   2.5398285428302501     
 H     -0.00351207      0.02328629     -0.74042763      0.00131923      0.01655378     -0.27809099
 H     -0.04889479     -0.10075617      0.82120813     -0.02195324     -0.04705579      0.30989652
    2
 MD step:        1100 time   2.6607727591554999     
 H     -0.00335141      0.02529140     -0.77423457      0.00135232      0.01664421     -0.28077499
 H     -0.05155101     -0.10645032      0.85886178     -0.02198633     -0.04714622      0.31258052
    2
 MD step:        1150 time   2.7817169754807503     
 H     -0.00317937      0.02732759     -0.80843323      0.00150971      0.01707439     -0.28548302
 H     -0.05421861     -0.11217556      0.89690712     -0.02214372     -0.04757640      0.31728853
    2
 MD step:        1200 time   2.9026611918060001     
 H     -0.00298638      0.02942109     -0.84330365      0.00166635      0.01750254     -0.29052117
 H     -0.05690717     -0.11795810      0.93562424     -0.02230036     -0.04800455      0.32232667
    2
 MD step:        1250 time   3.0236054081312500     
 H     -0.00278091      0.03154868     -0.87859132      0.00172213      0.01765499     -0.29320687
 H     -0.05960820     -0.12377472      0.97475860     -0.02235614     -0.04815700      0.32501237
    2
 MD step:        1300 time   3.1445496244565003     
 H     -0.00257213      0.03368530     -0.91410625      0.00170853      0.01761783     -0.29242538
 H     -0.06231255     -0.12960040      1.01412022     -0.02234254     -0.04811985      0.32423088
    2
 MD step:        1350 time   3.2654938407817502     
 H     -0.00237071      0.03580182     -0.94918366      0.00163363      0.01741311     -0.28896976
 H     -0.06500953     -0.13540596      1.05304432     -0.02226764     -0.04791512      0.32077525
    2
 MD step:        1400 time   3.3864380571070001     
 H     -0.00217462      0.03790375     -0.98420487      0.00161634      0.01736584     -0.28989946
 H     -0.06770118     -0.14119693      1.09191222     -0.02225035     -0.04786785      0.32170495
    2
 MD step:        1450 time   3.5073822734322500     
 H     -0.00197591      0.04001288     -1.01930016      0.00168128      0.01754335     -0.29086211
 H     -0.07039546     -0.14699509      1.13085420     -0.02231529     -0.04804536      0.32266761
    2
 MD step:        1500 time   3.6283264897575003     
 H     -0.00176828      0.04214636     -1.05465445      0.00175011      0.01773148     -0.29400670
 H     -0.07309866     -0.15281762      1.17005518     -0.02238412     -0.04823349      0.32581220
    2
 MD step:        1550 time   3.7492707060827501     
 H     -0.00155329      0.04429997     -1.09031217      0.00179385      0.01785104     -0.29472885
 H     -0.07580921     -0.15866027      1.20955960     -0.02242787     -0.04835305      0.32653434
    2
 MD step:        1600 time   3.8702149224080000     
 H     -0.00133913      0.04645131     -1.12582297      0.00173725      0.01769634     -0.29294681
 H     -0.07851893     -0.16450065      1.24891708     -0.02237127     -0.04819835      0.32475229
    2
 MD step:        1650 time   3.9911591387332503     
 H     -0.00113348      0.04857939     -1.16121721      0.00166399      0.01749609     -0.29168146
 H     -0.08122015     -0.17031777      1.28815801     -0.02229800     -0.04799810      0.32348694
    2
 MD step:        1700 time   4.1121033550585002     
 H     -0.00093419      0.05069008     -1.19632273      0.00164801      0.01745241     -0.28968934
 H     -0.08391500     -0.17611750      1.32711023     -0.02228202     -0.04795442      0.32149484
    2
 MD step:        1750 time   4.2330475713837501     
 H     -0.00073360      0.05280431     -1.23148031      0.00166846      0.01750831     -0.29177056
 H     -0.08661115     -0.18192078      1.36611450     -0.02230247     -0.04801032      0.32357606
    2
 MD step:        1800 time   4.3539917877090000     
 H     -0.00053081      0.05492457     -1.26675817      0.00167781      0.01753387     -0.29092573
 H     -0.08930951     -0.18773008      1.40523904     -0.02231182     -0.04803588      0.32273122
    2
 MD step:        1850 time   4.4749360040342498     
 H     -0.00033037      0.05703841     -1.30185796      0.00163352      0.01741280     -0.29013832
 H     -0.09200551     -0.19353297      1.44418553     -0.02226753     -0.04791481      0.32194381
    2
 MD step:        1900 time   4.5958802203594997     
 H     -0.00013571      0.05913647     -1.33692995      0.00158617      0.01728338     -0.28906610
 H     -0.09469574     -0.19932006      1.48310421     -0.02222018     -0.04778539      0.32087159
    2
 MD step:        1950 time   4.7168244366847505     
 H      0.00005502      0.06122374     -1.37175576      0.00157522      0.01725345     -0.28762767
 H     -0.09738203     -0.20509638      1.52177670     -0.02220923     -0.04775546      0.31943316
    2
 MD step:        2000 time   4.8377686530100004     
 H      0.00024563      0.06331072     -1.40664814      0.00157650      0.01725695     -0.28916541
 H     -0.10006820     -0.21087239      1.56051577     -0.02221051     -0.04775897      0.32097091
    2
 MD step:        2050 time   4.9587128693352502     
 H      0.00043584      0.06539661     -1.44153037      0.00156226      0.01721805     -0.28724024
 H     -0.10275398     -0.21664733      1.59924470     -0.02219628     -0.04772006      0.31904573
    2
 MD step:        2100 time   5.0796570856605001     
 H      0.00062274      0.06747344     -1.47623954      0.00152885      0.01712672     -0.28732419
 H     -0.10543645     -0.22241320      1.63780056     -0.02216286     -0.04762873      0.31912969
    2
 MD step:        2150 time   5.2006013019857500     
 H      0.00080587      0.06953996     -1.51096665      0.00150235      0.01705429     -0.28626625
 H     -0.10811514     -0.22816876      1.67637436     -0.02213636     -0.04755630      0.31807174
    2
 MD step:        2200 time   5.3215455183109999     
 H      0.00098707      0.07160121     -1.54549761      0.00149419      0.01703199     -0.28547278
 H     -0.11079191     -0.23391906      1.71475201     -0.02212821     -0.04753401      0.31727827
    2
 MD step:        2250 time   5.4424897346362506     
 H      0.00116720      0.07365953     -1.58011046      0.00148403      0.01700422     -0.28642259
 H     -0.11346760     -0.23966641      1.75321155     -0.02211804     -0.04750623      0.31822809
    2
 MD step:        2300 time   5.5634339509615005     
 H      0.00134552      0.07571291     -1.61461672      0.00146356      0.01694825     -0.28423776
 H     -0.11614149     -0.24540884      1.79156450     -0.02209757     -0.04745026      0.31604325
    2
 MD step:        2350 time   5.6843781672867504     
 H      0.00152145      0.07775975     -1.64902898      0.00144598      0.01690022     -0.28516092
 H     -0.11881298     -0.25114473      1.82982345     -0.02207999     -0.04740223      0.31696641
    2
 MD step:        2400 time   5.8053223836120003     
 H      0.00169545      0.07980131     -1.68347893      0.00143273      0.01686400     -0.28392226
 H     -0.12148254     -0.25687532      1.86812009     -0.02206674     -0.04736601      0.31572775
    2
 MD step:        2450 time   5.9262665999372501     
 H      0.00186790      0.08183864     -1.71775043      0.00141807      0.01682393     -0.28355305
 H     -0.12415055     -0.26260170      1.90623828     -0.02205208     -0.04732594      0.31535854
    2
 MD step:        2500 time   6.0472108162625000     
 H      0.00203846      0.08387082     -1.75210530      0.00140230      0.01678083     -0.28388018
 H     -0.12681668     -0.26832292      1.94443985     -0.02203631     -0.04728284      0.31568567
    2
 MD step:        2550 time   6.1681550325877499     
 H      0.00220714      0.08589786     -1.78630611      0.00138830      0.01674255     -0.28209199
 H     -0.12948093     -0.27403900      1.98248734     -0.02202231     -0.04724456      0.31389748
    2
 MD step:        2600 time   6.2890992489130007     
 H      0.00237436      0.08792090     -1.82049721      0.00137693      0.01671148     -0.28334460
 H     -0.13214371     -0.27975108      2.02052513     -0.02201094     -0.04721349      0.31515010
    2
 MD step:        2650 time   6.4100434652382505     
 H      0.00254019      0.08994013     -1.85469305      0.00136479      0.01667830     -0.28168906
 H     -0.13480511     -0.28545936      2.05856766     -0.02199880     -0.04718031      0.31349455
    2
 MD step:        2700 time   6.5309876815635004     
 H      0.00270443      0.09195502     -1.88873527      0.00135127      0.01664136     -0.28196084
 H     -0.13746491     -0.29116328      2.09645658     -0.02198529     -0.04714337      0.31376633
    2
 MD step:        2750 time   6.6519318978887503     
 H      0.00286708      0.09396556     -1.92287256      0.00133866      0.01660688     -0.28179205
 H     -0.14012312     -0.29686287      2.13444055     -0.02197267     -0.04710889      0.31359755
    2
 MD step:        2800 time   6.7728761142140002     
 H      0.00302831      0.09597223     -1.95683882      0.00132744      0.01657622     -0.28049665
 H     -0.14277992     -0.30255858      2.17225350     -0.02196146     -0.04707824      0.31230214
    2
 MD step:        2850 time   6.8938203305392500     
 H      0.00318817      0.09797515     -1.99084959      0.00131617      0.01654542     -0.28165894
 H     -0.14543534     -0.30825054      2.21011096     -0.02195019     -0.04704743      0.31346444
    2
 MD step:        2900 time   7.0147645468644999     
 H      0.00334667      0.09997436     -2.02481073      0.00130500      0.01651487     -0.27979357
 H     -0.14808941     -0.31393879      2.24791880     -0.02193901     -0.04701688      0.31159906
    2
 MD step:        2950 time   7.1357087631897507     
 H      0.00350387      0.10197002     -2.05867086      0.00129463      0.01648654     -0.28066229
 H     -0.15074217     -0.31962349      2.28562562     -0.02192864     -0.04698855      0.31246779
    2
 MD step:        3000 time   7.2566529795150005     
 H      0.00365984      0.10396229     -2.09261696      0.00128451      0.01645888     -0.27994558
 H     -0.15339370     -0.32530481      2.32341840     -0.02191852     -0.04696089      0.31175108
    2
 MD step:        3050 time   7.3775971958402504     
 H      0.00381457      0.10595121     -2.12638674      0.00127437      0.01643117     -0.27923702
 H     -0.15604400     -0.33098277      2.36103487     -0.02190838     -0.04693318      0.31104251
    2
 MD step:        3100 time   7.4985414121655003     
 H      0.00396811      0.10793683     -2.16024383      0.00126455      0.01640433     -0.28011638
 H     -0.15869310     -0.33665744      2.39873865     -0.02189856     -0.04690634      0.31192188
    2
 MD step:        3150 time   7.6194856284907502     
 H      0.00412048      0.10991928     -2.19400344      0.00125517      0.01637868     -0.27830736
 H     -0.16134103     -0.34232893      2.43634495     -0.02188918     -0.04688070      0.31011285
    2
 MD step:        3200 time   7.7404298448160000     
 H      0.00427172      0.11189866     -2.22772131      0.00124599      0.01635359     -0.27953485
 H     -0.16398785     -0.34799735      2.47390951     -0.02188000     -0.04685560      0.31134034
    2
 MD step:        3250 time   7.8613740611412499     
 H      0.00442187      0.11387505     -2.26149119      0.00123704      0.01632913     -0.27829891
 H     -0.16663356     -0.35366278      2.51152609     -0.02187105     -0.04683114      0.31010440
    2
 MD step:        3300 time   7.9823182774665007     
 H      0.00457096      0.11584853     -2.29510073      0.00122842      0.01630556     -0.27825619
 H     -0.16927821     -0.35932530      2.54898232     -0.02186243     -0.04680757      0.31006168
    2
 MD step:        3350 time   8.1032624937917497     
 H      0.00471902      0.11781920     -2.32882192      0.00122004      0.01628265     -0.27867136
 H     -0.17192184     -0.36498502      2.58655020     -0.02185405     -0.04678466      0.31047685
    2
 MD step:        3400 time   8.2242067101170004     
 H      0.00486608      0.11978713     -2.36240646      0.00121181      0.01626016     -0.27713813
 H     -0.17456446     -0.37064198      2.62398143     -0.02184582     -0.04676217      0.30894362
    2
 MD step:        3450 time   8.3451509264422494     
 H      0.00501216      0.12175237     -2.39600890      0.00120380      0.01623828     -0.27849257
 H     -0.17720610     -0.37629627      2.66143055     -0.02183781     -0.04674029      0.31029806
    2
 MD step:        3500 time   8.4660951427675002     
 H      0.00515728      0.12371501     -2.42961647      0.00119604      0.01621707     -0.27689151
 H     -0.17984679     -0.38194795      2.69888481     -0.02183006     -0.04671909      0.30869700
    2
 MD step:        3550 time   8.5870393590927510     
 H      0.00530147      0.12567511     -2.46309922      0.00118844      0.01619628     -0.27746895
 H     -0.18248654     -0.38759709      2.73621426     -0.02182245     -0.04669829      0.30927445
    2
 MD step:        3600 time   8.7079835754179999     
 H      0.00544475      0.12763273     -2.49669429      0.00118102      0.01617601     -0.27730492
 H     -0.18512539     -0.39324375      2.77365602     -0.02181503     -0.04667803      0.30911041
    2
 MD step:        3650 time   8.8289277917432507     
 H      0.00558716      0.12958793     -2.53012949      0.00117386      0.01615643     -0.27624843
 H     -0.18776336     -0.39888799      2.81093791     -0.02180787     -0.04665844      0.30805392
    2
 MD step:        3700 time   8.9498720080684997     
 H      0.00572870      0.13154080     -2.56363476      0.00116688      0.01613736     -0.27747948
 H     -0.19040047     -0.40452991      2.84828987     -0.02180089     -0.04663938      0.30928497
    2
 MD step:        3750 time   9.0708162243937505     
 H      0.00586941      0.13349138     -2.59709260      0.00116002      0.01611862     -0.27571967
 H     -0.19303675     -0.41016953      2.88559440     -0.02179403     -0.04662063      0.30752516
    2
 MD step:        3800 time   9.1917604407189994     
 H      0.00600931      0.13543973     -2.63047578      0.00115337      0.01610043     -0.27679250
 H     -0.19567220     -0.41580692      2.92282427     -0.02178738     -0.04660244      0.30859800
    2
 MD step:        3850 time   9.3127046570442502     
 H      0.00614841      0.13738591     -2.66395035      0.00114687      0.01608266     -0.27604093
 H     -0.19830687     -0.42144214      2.96014553     -0.02178088     -0.04658467      0.30784643
    2
 MD step:        3900 time   9.4336488733695010     
 H      0.00628673      0.13932996     -2.69726233      0.00114050      0.01606525     -0.27558669
 H     -0.20094075     -0.42707523      2.99730420     -0.02177451     -0.04656726      0.30739219
    2
 MD step:        3950 time   9.5545930896947500     
 H      0.00642429      0.14127192     -2.73068098      0.00113428      0.01604826     -0.27646477
 H     -0.20357387     -0.43270624      3.03456954     -0.02176829     -0.04655027      0.30827026
    2
 MD step:        4000 time   9.6755373060200007     
 H      0.00656110      0.14321186     -2.76400273      0.00112821      0.01603167     -0.27478784
 H     -0.20620626     -0.43833522      3.07173798     -0.02176222     -0.04653368      0.30659333
    2
 MD step:        4050 time   9.7964815223452497     
 H      0.00669719      0.14514981     -2.79730754      0.00112228      0.01601546     -0.27615358
 H     -0.20883791     -0.44396221      3.10888948     -0.02175629     -0.04651748      0.30795907
    2
 MD step:        4100 time   9.9174257386705005     
 H      0.00683257      0.14708583     -2.83066438      0.00111649      0.01599962     -0.27489761
 H     -0.21146886     -0.44958727      3.14609301     -0.02175050     -0.04650164      0.30670310
    2
 MD step:        4150 time   10.038369954995749     
 H      0.00696726      0.14901995     -2.86387736      0.00111082      0.01598414     -0.27508640
 H     -0.21409911     -0.45521043      3.18315268     -0.02174483     -0.04648615      0.30689189
    2
 MD step:        4200 time   10.159314171321000     
 H      0.00710127      0.15095222     -2.89721343      0.00110528      0.01596900     -0.27544550
 H     -0.21672869     -0.46083175      3.22033544     -0.02173929     -0.04647101      0.30725099
    2
 MD step:        4250 time   10.280258387646251     
 H      0.00723462      0.15288268     -2.93041463      0.00109986      0.01595419     -0.27408247
 H     -0.21935760     -0.46645125      3.25738333     -0.02173387     -0.04645620      0.30588796
    2
 MD step:        4300 time   10.401202603971500     
 H      0.00736732      0.15481137     -2.96365572      0.00109456      0.01593970     -0.27550024
 H     -0.22198586     -0.47206898      3.29447112     -0.02172857     -0.04644171      0.30730574
    2
 MD step:        4350 time   10.522146820296751     
 H      0.00749939      0.15673832     -2.99689800      0.00108937      0.01592552     -0.27390779
 H     -0.22461349     -0.47768497      3.33156008     -0.02172339     -0.04642753      0.30571328
    2
 MD step:        4400 time   10.643091036622000     
 H      0.00763083      0.15866358     -3.03003421      0.00108430      0.01591164     -0.27468259
 H     -0.22724050     -0.48329927      3.36854298     -0.02171831     -0.04641365      0.30648808
    2
 MD step:        4450 time   10.764035252947250     
 H      0.00776167      0.16058717     -3.06328747      0.00107932      0.01589805     -0.27444006
 H     -0.22986690     -0.48891191      3.40564294     -0.02171334     -0.04640006      0.30624555
    2
 MD step:        4500 time   10.884979469272501     
 H      0.00789191      0.16250914     -3.09638571      0.00107446      0.01588474     -0.27357721
 H     -0.23249271     -0.49452292      3.44258787     -0.02170847     -0.04638676      0.30538271
    2
 MD step:        4550 time   11.005923685597750     
 H      0.00802157      0.16442952     -3.12957137      0.00106969      0.01587171     -0.27480087
 H     -0.23511794     -0.50013234      3.47962021     -0.02170370     -0.04637372      0.30660636
    2
 MD step:        4600 time   11.126867901923001     
 H      0.00815066      0.16634834     -3.16270414      0.00106502      0.01585894     -0.27309522
 H     -0.23774259     -0.50574020      3.51659968     -0.02169903     -0.04636095      0.30490071
    2
 MD step:        4650 time   11.247812118248250     
 H      0.00827919      0.16826563     -3.19578221      0.00106044      0.01584643     -0.27431124
 H     -0.24036668     -0.51134653      3.55352443     -0.02169445     -0.04634844      0.30611674
    2
 MD step:        4700 time   11.368756334573501     
 H      0.00840717      0.17018142     -3.22895018      0.00105595      0.01583417     -0.27348130
 H     -0.24299023     -0.51695136      3.59053910     -0.02168996     -0.04633618      0.30528680
    2
 MD step:        4750 time   11.489700550898750     
 H      0.00853462      0.17209574     -3.26196430      0.00105155      0.01582215     -0.27323005
 H     -0.24561324     -0.52255472      3.62739991     -0.02168557     -0.04632416      0.30503554
    2
 MD step:        4800 time   11.610644767224001     
 H      0.00866154      0.17400862     -3.29509700      0.00104724      0.01581036     -0.27404657
 H     -0.24823572     -0.52815665      3.66437930     -0.02168125     -0.04631237      0.30585206
    2
 MD step:        4850 time   11.731588983549251     
 H      0.00878794      0.17592009     -3.32812830      0.00104301      0.01579880     -0.27247143
 H     -0.25085769     -0.53375716      3.70125729     -0.02167702     -0.04630081      0.30427693
    2
 MD step:        4900 time   11.852533199874500     
 H      0.00891383      0.17783018     -3.36116216      0.00103886      0.01578746     -0.27391787
 H     -0.25347914     -0.53935629      3.73813784     -0.02167287     -0.04628947      0.30572337
    2
 MD step:        4950 time   11.973477416199751     
 H      0.00903923      0.17973890     -3.39424221      0.00103479      0.01577633     -0.27260884
 H     -0.25610011     -0.54495406      3.77506458     -0.02166880     -0.04627835      0.30441434
    2
 MD step:        5000 time   12.094421632525000     
 H      0.00916414      0.18164630     -3.42719105      0.00103080      0.01576542     -0.27298783
 H     -0.25872058     -0.55055049      3.81186011     -0.02166481     -0.04626743      0.30479332
    2
 MD step:        5050 time   12.215365848850251     
 H      0.00928857      0.18355238     -3.46026870      0.00102688      0.01575470     -0.27325003
 H     -0.26134058     -0.55614562      3.84878445     -0.02166089     -0.04625672      0.30505552
    2
 MD step:        5100 time   12.336310065175500     
 H      0.00941253      0.18545718     -3.49320984      0.00102303      0.01574419     -0.27203113
 H     -0.26396010     -0.56173946      3.88557229     -0.02165704     -0.04624620      0.30383663
    2
 MD step:        5150 time   12.457254281500751     
 H      0.00953603      0.18736073     -3.52620806      0.00101925      0.01573386     -0.27346355
 H     -0.26657917     -0.56733205      3.92241719     -0.02165326     -0.04623587      0.30526904
    2
 MD step:        5200 time   12.578198497826001     
 H      0.00965908      0.18926303     -3.55919927      0.00101554      0.01572372     -0.27186054
 H     -0.26919778     -0.57292340      3.95925509     -0.02164956     -0.04622573      0.30366603
    2
 MD step:        5250 time   12.699142714151250     
 H      0.00978168      0.19116412     -3.59210009      0.00101190      0.01571376     -0.27279238
 H     -0.27181595     -0.57851353      3.99600260     -0.02164591     -0.04621577      0.30459787
    2
 MD step:        5300 time   12.820086930476501     
 H      0.00990385      0.19306402     -3.62511770      0.00100832      0.01570398     -0.27244144
 H     -0.27443368     -0.58410246      4.03286690     -0.02164233     -0.04620599      0.30424693
    2
 MD step:        5350 time   12.941031146801750     
 H      0.01002559      0.19496274     -3.65798281      0.00100480      0.01569437     -0.27175100
 H     -0.27705098     -0.58969023      4.06957870     -0.02163882     -0.04619638      0.30355650
    2
 MD step:        5400 time   13.061975363127001     
 H      0.01014690      0.19686031     -3.69094850      0.00100135      0.01568493     -0.27292906
 H     -0.27966786     -0.59527684      4.10639109     -0.02163536     -0.04618694      0.30473455
    2
 MD step:        5450 time   13.182919579452250     
 H      0.01026780      0.19875675     -3.72385301      0.00099795      0.01567565     -0.27126481
 H     -0.28228433     -0.60086232      4.14314228     -0.02163197     -0.04617766      0.30307031
    2
 MD step:        5500 time   13.303863795777501     
 H      0.01038830      0.20065207     -3.75672002      0.00099462      0.01566652     -0.27258781
 H     -0.28490038     -0.60644669      4.17985598     -0.02162863     -0.04616854      0.30439330
    2
 MD step:        5550 time   13.424808012102751     
 H      0.01050839      0.20254630     -3.78967161      0.00099134      0.01565756     -0.27166213
 H     -0.28751604     -0.61202996      4.21665427     -0.02162535     -0.04615957      0.30346762
    2
 MD step:        5600 time   13.545752228428000     
 H      0.01062809      0.20443946     -3.82247651      0.00098811      0.01564874     -0.27159176
 H     -0.29013131     -0.61761216      4.25330586     -0.02162212     -0.04615075      0.30339725
    2
 MD step:        5650 time   13.666696444753251     
 H      0.01074741      0.20633156     -3.85540794      0.00098494      0.01564007     -0.27231635
 H     -0.29274619     -0.62319330      4.29008398     -0.02161895     -0.04614208      0.30412184
    2
 MD step:        5700 time   13.787640661078500     
 H      0.01086634      0.20822262     -3.88823167      0.00098182      0.01563154     -0.27083474
 H     -0.29536068     -0.62877340      4.32675439     -0.02161583     -0.04613355      0.30264023
    2
 MD step:        5750 time   13.908584877403751     
 H      0.01098490      0.21011265     -3.92107477      0.00097875      0.01562315     -0.27232781
 H     -0.29797481     -0.63435248      4.36344419     -0.02161276     -0.04612516      0.30413330
    2
 MD step:        5800 time   14.029529093729000     
 H      0.01110309      0.21200168     -3.95395530      0.00097573      0.01561490     -0.27095681