    2
 MD step:           0 time   0.0000000000000000     
 H      0.00000000      0.00000000     -0.37000000     -0.01097868     -0.00058877      0.01165625
 H      0.00000000      0.00000000      0.37000000     -0.00245288     -0.00737239      0.03194745
    2
 MD step:          50 time  0.12094421632525000     
 H     -0.00132782     -0.00007485     -0.36860840     -0.01097890     -0.00070830      0.01122872
 H     -0.00029665     -0.00088800      0.37388201     -0.00245266     -0.00725286      0.03237498
    2
 MD step:         100 time  0.24188843265050000     
 H     -0.00265571     -0.00016928     -0.36728771     -0.01098004     -0.00079214      0.01057394
 H     -0.00059323     -0.00175643      0.37783494     -0.00245153     -0.00716902      0.03302976
    2
 MD step:         150 time  0.36283264897575002     
 H     -0.00398376     -0.00027444     -0.36605738     -0.01098113     -0.00093212      0.00993678
 H     -0.00088965     -0.00261413      0.38187822     -0.00245043     -0.00702904      0.03366692
    2
 MD step:         200 time  0.48377686530100000     
 H     -0.00531183     -0.00038338     -0.36484787     -0.01098019     -0.00088661      0.01009882
 H     -0.00118605     -0.00346804      0.38594233     -0.00245137     -0.00707455      0.03350488
    2
 MD step:         250 time  0.60472108162625005     
 H     -0.00663970     -0.00049526     -0.36361394     -0.01097844     -0.00100733      0.01024168
 H     -0.00148265     -0.00431902      0.38998202     -0.00245313     -0.00695382      0.03336202
    2
 MD step:         300 time  0.72566529795150003     
 H     -0.00796746     -0.00062276     -0.36237534     -0.01097848     -0.00107689      0.01012639
 H     -0.00177936     -0.00515438      0.39401703     -0.00245308     -0.00688427      0.03347731
    2
 MD step:         350 time  0.84660951427675002     
 H     -0.00929525     -0.00076696     -0.36117714     -0.01097824     -0.00126417      0.00984227
 H     -0.00207604     -0.00597303      0.39809244     -0.00245332     -0.00669699      0.03376143
    2
 MD step:         400 time  0.96755373060200001     
 H     -0.01062275     -0.00091589     -0.35996618     -0.01097319     -0.00123355      0.01021242
 H     -0.00237301     -0.00678696      0.40215510     -0.00245838     -0.00672761      0.03339128
    2
 MD step:         450 time   1.0884979469272500     
 H     -0.01194934     -0.00106927     -0.35868789     -0.01096385     -0.00131258      0.01094749
 H     -0.00267088     -0.00759643      0.40615042     -0.00246771     -0.00664857      0.03265620
    2
 MD step:         500 time   1.2094421632525001     
 H     -0.01327483     -0.00123115     -0.35732263     -0.01095579     -0.00137599      0.01148221
 H     -0.00296987     -0.00839741      0.41005878     -0.00247577     -0.00658516      0.03212148
    2
 MD step:         550 time   1.3303863795777500     
 H     -0.01459951     -0.00141430     -0.35593039     -0.01095000     -0.00159761      0.01162712
 H     -0.00326966     -0.00917711      0.41394015     -0.00248157     -0.00636354      0.03197658
    2
 MD step:         600 time   1.4513305959030001     
 H     -0.01592334     -0.00160686     -0.35450329     -0.01094055     -0.00164212      0.01196764
 H     -0.00357030     -0.00994741      0.41778667     -0.00249101     -0.00631904      0.03163606
    2
 MD step:         650 time   1.5722748122282502     
 H     -0.01724555     -0.00180933     -0.35300128     -0.01092280     -0.00167030      0.01298480
 H     -0.00387256     -0.01070779      0.42155828     -0.00250877     -0.00629086      0.03061889
    2
 MD step:         700 time   1.6932190285535000     
 H     -0.01856527     -0.00201254     -0.35135870     -0.01090092     -0.00171839      0.01411591
 H     -0.00417731     -0.01146744      0.42518931     -0.00253064     -0.00624277      0.02948778
    2
 MD step:         750 time   1.8141632448787501     
 H     -0.01988250     -0.00223413     -0.34960235     -0.01088235     -0.00190683      0.01494194
 H     -0.00448455     -0.01220870      0.42870657     -0.00254921     -0.00605433      0.02866176
    2
 MD step:         800 time   1.9351074612040000     
 H     -0.02119775     -0.00246943     -0.34776660     -0.01086695     -0.00205745      0.01533279
 H     -0.00479377     -0.01293626      0.43214444     -0.00256461     -0.00590370      0.02827090
    2
 MD step:         850 time   2.0560516775292501     
 H     -0.02251092     -0.00272491     -0.34586814     -0.01084632     -0.00209513      0.01618323
 H     -0.00510507     -0.01364364      0.43551960     -0.00258524     -0.00586602      0.02742047
    2
 MD step:         900 time   2.1769958938545000     
 H     -0.02382090     -0.00298133     -0.34384377     -0.01081472     -0.00216322      0.01738168
 H     -0.00541955     -0.01435007      0.43876884     -0.00261685     -0.00579793      0.02622202
    2
 MD step:         950 time   2.2979401101797499     
 H     -0.02512670     -0.00324770     -0.34165253     -0.01077883     -0.00223184      0.01885387
 H     -0.00573822     -0.01504656      0.44185121     -0.00265274     -0.00572932      0.02474982
    2
 MD step:        1000 time   2.4188843265050002     
 H     -0.02642845     -0.00352450     -0.33930950     -0.01074879     -0.00241686      0.01975660
 H     -0.00606095     -0.01573261      0.44478180     -0.00268277     -0.00554429      0.02384710
    2
 MD step:        1050 time   2.5398285428302501     
 H     -0.02772699     -0.00382670     -0.33687241     -0.01072485     -0.00251006      0.02052649
 H     -0.00638688     -0.01639327      0.44761832     -0.00270671     -0.00545110      0.02307720
    2
 MD step:        1100 time   2.6607727591554999     
 H     -0.02902238     -0.00414058     -0.33435289     -0.01069498     -0.00268174      0.02125715
 H     -0.00671596     -0.01704224      0.45037242     -0.00273658     -0.00527942      0.02234654
    2
 MD step:        1150 time   2.7817169754807503     
 H     -0.03031342     -0.00446287     -0.33169760     -0.01065286     -0.00265805      0.02266423
 H     -0.00704939     -0.01768281      0.45299075     -0.00277871     -0.00530310      0.02093947
    2
 MD step:        1200 time   2.9026611918060001     
 H     -0.03159897     -0.00479009     -0.32886939     -0.01060602     -0.00278099      0.02407289
 H     -0.00738831     -0.01831844      0.45543615     -0.00282554     -0.00518017      0.01953081
    2
 MD step:        1250 time   3.0236054081312500     
 H     -0.03287921     -0.00513351     -0.32588063     -0.01056735     -0.00286858      0.02523780
 H     -0.00773253     -0.01893788      0.45772101     -0.00286421     -0.00509257      0.01836590
    2
 MD step:        1300 time   3.1445496244565003     
 H     -0.03415542     -0.00549624     -0.32279746     -0.01053749     -0.00313173      0.02578290
 H     -0.00808080     -0.01953801      0.45991145     -0.00289407     -0.00482942      0.01782080
    2
 MD step:        1350 time   3.2654938407817502     
 H     -0.03542799     -0.00587418     -0.31962957     -0.01050438     -0.00314264      0.02656991
 H     -0.00843270     -0.02012293      0.46201718     -0.00292718     -0.00481852      0.01703379
    2
 MD step:        1400 time   3.3864380571070001     
 H     -0.03669584     -0.00626180     -0.31635396     -0.01045903     -0.00322665      0.02773770
 H     -0.00878932     -0.02069816      0.46401518     -0.00297254     -0.00473450      0.01586599
    2
 MD step:        1450 time   3.5073822734322500     
 H     -0.03795769     -0.00665283     -0.31291439     -0.01040813     -0.00325439      0.02909426
 H     -0.00915194     -0.02126999      0.46584922     -0.00302343     -0.00470677      0.01450943
    2
 MD step:        1500 time   3.6283264897575003     
 H     -0.03921394     -0.00705928     -0.30934217     -0.01036810     -0.00347482      0.02995208
 H     -0.00952015     -0.02182639      0.46755062     -0.00306346     -0.00448634      0.01365162
    2
 MD step:        1550 time   3.7492707060827501     
 H     -0.04046625     -0.00748236     -0.30568477     -0.01034161     -0.00356460      0.03038131
 H     -0.00989232     -0.02236617      0.46916684     -0.00308996     -0.00439656      0.01322239
    2
 MD step:        1600 time   3.8702149224080000     
 H     -0.04171545     -0.00792566     -0.30198826     -0.01031388     -0.00367898      0.03089862
 H     -0.01026759     -0.02288573      0.47074394     -0.00311769     -0.00428218      0.01270508
    2
 MD step:        1650 time   3.9911591387332503     
 H     -0.04296044     -0.00836992     -0.29820153     -0.01027205     -0.00370271      0.03175534
 H     -0.01064707     -0.02340432      0.47223083     -0.00315951     -0.00425845      0.01184836
    2
 MD step:        1700 time   4.1121033550585002     
 H     -0.04420004     -0.00882331     -0.29430016     -0.01022814     -0.00379682      0.03274064
 H     -0.01103194     -0.02391378      0.47360307     -0.00320343     -0.00416433      0.01086306
    2
 MD step:        1750 time   4.2330475713837501     
 H     -0.04543523     -0.00928624     -0.29030431     -0.01020150     -0.00391416      0.03313635
 H     -0.01142122     -0.02441371      0.47488084     -0.00323006     -0.00404700      0.01046734
    2
 MD step:        1800 time   4.3539917877090000     
 H     -0.04666831     -0.00977331     -0.28629506     -0.01019083     -0.00404824      0.03320725
 H     -0.01181261     -0.02488950      0.47614520     -0.00324073     -0.00391292      0.01039645
    2
 MD step:        1850 time   4.4749360040342498     
 H     -0.04789993     -0.01026610     -0.28227783     -0.01017378     -0.00413413      0.03328576
 H     -0.01220546     -0.02535956      0.47740159     -0.00325779     -0.00382703      0.01031794
    2
 MD step:        1900 time   4.5958802203594997     
 H     -0.04912862     -0.01076594     -0.27821479     -0.01014415     -0.00412832      0.03390914
 H     -0.01260124     -0.02582258      0.47861216     -0.00328741     -0.00383283      0.00969456
    2
 MD step:        1950 time   4.7168244366847505     
 H     -0.05035402     -0.01126853     -0.27408893     -0.01012395     -0.00423401      0.03416454
 H     -0.01300031     -0.02628284      0.47975992     -0.00330762     -0.00372714      0.00943916
    2
 MD step:        2000 time   4.8377686530100004     
 H     -0.05157849     -0.01179136     -0.26996608     -0.01012876     -0.00434113      0.03395527
 H     -0.01340031     -0.02672287      0.48091067     -0.00330280     -0.00362003      0.00964843
    2
 MD step:        2050 time   4.9587128693352502     
 H     -0.05280427     -0.01232447     -0.26589837     -0.01014045     -0.00448824      0.03338273
 H     -0.01379900     -0.02715261      0.48211659     -0.00329111     -0.00347292      0.01022097
    2
 MD step:        2100 time   5.0796570856605001     
 H     -0.05403063     -0.01286381     -0.26185961     -0.01013753     -0.00443759      0.03341082
 H     -0.01419711     -0.02757613      0.48335144     -0.00329404     -0.00352357      0.01019288
    2
 MD step:        2150 time   5.2006013019857500     
 H     -0.05525639     -0.01340363     -0.25781866     -0.01013572     -0.00452585      0.03332449
 H     -0.01459582     -0.02799916      0.48458410     -0.00329584     -0.00343531      0.01027920
    2
 MD step:        2200 time   5.3215455183109999     
 H     -0.05648344     -0.01395753     -0.25381348     -0.01016118     -0.00459348      0.03277905
 H     -0.01499324     -0.02840812      0.48585254     -0.00327038     -0.00336768      0.01082464
    2
 MD step:        2250 time   5.4424897346362506     
 H     -0.05771486     -0.01452461     -0.24991802     -0.01020200     -0.00476150      0.03173629
 H     -0.01538629     -0.02880390      0.48723069     -0.00322956     -0.00319965      0.01186741
    2
 MD step:        2300 time   5.5634339509615005     
 H     -0.05895047     -0.01509542     -0.24611214     -0.01022842     -0.00470419      0.03120317
 H     -0.01577515     -0.02919594      0.48869843     -0.00320315     -0.00325697      0.01240053
    2
 MD step:        2350 time   5.6843781672867504     
 H     -0.06018874     -0.01566728     -0.24236354     -0.01025140     -0.00477832      0.03073019
 H     -0.01616135     -0.02958694      0.49022345     -0.00318016     -0.00318284      0.01287351
    2
 MD step:        2400 time   5.8053223836120003     
 H     -0.06143132     -0.01624847     -0.23869417     -0.01030304     -0.00482795      0.02976911
 H     -0.01654324     -0.02996861      0.49182769     -0.00312853     -0.00313320      0.01383458
    2
 MD step:        2450 time   5.9262665999372501     
 H     -0.06268157     -0.01684498     -0.23518323     -0.01037090     -0.00497080      0.02842143
 H     -0.01691746     -0.03033495      0.49359037     -0.00306066     -0.00299036      0.01518227
    2
 MD step:        2500 time   6.0472108162625000     
 H     -0.06393911     -0.01744153     -0.23180325     -0.01042161     -0.00492939      0.02750375
 H     -0.01728439     -0.03070126      0.49548400     -0.00300995     -0.00303177      0.01609994
    2
 MD step:        2550 time   6.1681550325877499     
 H     -0.06520215     -0.01804051     -0.22852084     -0.01046802     -0.00499680      0.02673071
 H     -0.01764581     -0.03106513      0.49747520     -0.00296355     -0.00296436      0.01687299
    2
 MD step:        2600 time   6.2890992489130007     
 H     -0.06647250     -0.01864662     -0.22535746     -0.01054519     -0.00506186      0.02538066
 H     -0.01799993     -0.03142187      0.49958543     -0.00288637     -0.00289929      0.01822303
    2
 MD step:        2650 time   6.4100434652382505     
 H     -0.06775329     -0.01926923     -0.22238434     -0.01063175     -0.00514354      0.02392778
 H     -0.01834362     -0.03176213      0.50188593     -0.00279981     -0.00281761      0.01967591
    2
 MD step:        2700 time   6.5309876815635004     
 H     -0.06904322     -0.01988886     -0.21955891     -0.01069524     -0.00512810      0.02287578
 H     -0.01867816     -0.03210534      0.50433412     -0.00273632     -0.00283305      0.02072792
    2
 MD step:        2750 time   6.6519318978887503     
 H     -0.07034027     -0.02051269     -0.21684573     -0.01075697     -0.00519566      0.02196026
 H     -0.01900558     -0.03244437      0.50689455     -0.00267460     -0.00276549      0.02164343
    2
 MD step:        2800 time   6.7728761142140002     
 H     -0.07164664     -0.02114377     -0.21427524     -0.01084998     -0.00530500      0.02038712
 H     -0.01932367     -0.03277615      0.50959768     -0.00258159     -0.00265616      0.02321658
    2
 MD step:        2850 time   6.8938203305392500     
 H     -0.07296465     -0.02179075     -0.21189770     -0.01094019     -0.00531812      0.01904278
 H     -0.01963014     -0.03309203      0.51249375     -0.00249138     -0.00264304      0.02456092
    2
 MD step:        2900 time   7.0147645468644999     
 H     -0.07429177     -0.02243408     -0.20965767     -0.01100114     -0.00532975      0.01810208
 H     -0.01992749     -0.03341156      0.51552733     -0.00243043     -0.00263140      0.02550162
    2
 MD step:        2950 time   7.1357087631897507     
 H     -0.07562588     -0.02308330     -0.20751856     -0.01106416     -0.00539259      0.01724569
 H     -0.02021785     -0.03372519      0.51866184     -0.00236741     -0.00256857      0.02635800
    2
 MD step:        3000 time   7.2566529795150005     
 H     -0.07696944     -0.02374172     -0.20552072     -0.01115558     -0.00555589      0.01572214
 H     -0.02049875     -0.03402962      0.52193761     -0.00227599     -0.00240527      0.02788156
    2
 MD step:        3050 time   7.3775971958402504     
 H     -0.07832368     -0.02441400     -0.20368800     -0.01123247     -0.00552678      0.01464757
 H     -0.02076899     -0.03432020      0.52537851     -0.00219909     -0.00243437      0.02895612
    2
 MD step:        3100 time   7.4985414121655003     
 H     -0.07968503     -0.02508451     -0.20196095     -0.01127496     -0.00556163      0.01400824
 H     -0.02103211     -0.03461254      0.52892508     -0.00215660     -0.00239952      0.02959546
    2
 MD step:        3150 time   7.6194856284907502     
 H     -0.08105118     -0.02576136     -0.20029907     -0.01132075     -0.00561043      0.01342288
 H     -0.02129043     -0.03489855      0.53253681     -0.00211081     -0.00235073      0.03018082
    2
 MD step:        3200 time   7.7404298448160000     
 H     -0.08242458     -0.02645068     -0.19874904     -0.01139135     -0.00581594      0.01222234
 H     -0.02154150     -0.03517209      0.53626040     -0.00204021     -0.00214522      0.03138135
    2
 MD step:        3250 time   7.8613740611412499     
 H     -0.08380579     -0.02715186     -0.19731696     -0.01144232     -0.00578549      0.01148083
 H     -0.02178476     -0.03543376      0.54010193     -0.00198925     -0.00217567      0.03212287
    2
 MD step:        3300 time   7.9823182774665007     
 H     -0.08519066     -0.02785496     -0.19594800     -0.01145344     -0.00582996      0.01126247
 H     -0.02202436     -0.03569352      0.54400659     -0.00197812     -0.00213120      0.03234123
    2
 MD step:        3350 time   8.1032624937917497     
 H     -0.08657621     -0.02856245     -0.19458967     -0.01146309     -0.00586454      0.01112057
 H     -0.02226327     -0.03594889      0.54792187     -0.00196848     -0.00209662      0.03248313
    2
 MD step:        3400 time   8.2242067101170004     
 H     -0.08796456     -0.02928579     -0.19328883     -0.01149694     -0.00608880      0.01043668
 H     -0.02249940     -0.03618839      0.55189465     -0.00193462     -0.00187235      0.03316701
    2
 MD step:        3450 time   8.3451509264422494     
 H     -0.08935665     -0.03002054     -0.19205270     -0.01151722     -0.00609862      0.00999287
 H     -0.02273178     -0.03641650      0.55593213     -0.00191434     -0.00186254      0.03361083
    2
 MD step:        3500 time   8.4660951427675002     
 H     -0.09074858     -0.03076228     -0.19084030     -0.01149294     -0.00613246      0.01019484
 H     -0.02296432     -0.03663761      0.55999334     -0.00193862     -0.00182870      0.03340886
    2
 MD step:        3550 time   8.5870393590927510     
 H     -0.09213603     -0.03150442     -0.18957997     -0.01145281     -0.00615719      0.01058401
 H     -0.02320134     -0.03685834      0.56400663     -0.00197876     -0.00180396      0.03301969
    2
 MD step:        3600 time   8.7079835754179999     
 H     -0.09351993     -0.03226319     -0.18830281     -0.01143569     -0.00636411      0.01056538
 H     -0.02344190     -0.03706242      0.56800309     -0.00199587     -0.00159705      0.03303831
    2
 MD step:        3650 time   8.8289277917432507     
 H     -0.09490255     -0.03303442     -0.18703295     -0.01142438     -0.00644996      0.01037682
 H     -0.02368376     -0.03725405      0.57200685     -0.00200718     -0.00151120      0.03322688
    2
 MD step:        3700 time   8.9498720080684997     
 H     -0.09628187     -0.03381973     -0.18576064     -0.01137499     -0.00647288      0.01082150
 H     -0.02392891     -0.03743160      0.57600814     -0.00205657     -0.00148827      0.03278220
    2
 MD step:        3750 time   9.0708162243937505     
 H     -0.09765251     -0.03460261     -0.18440430     -0.01128748     -0.00649758      0.01163324
 H     -0.02418274     -0.03761157      0.57992542     -0.00214408     -0.00146358      0.03197045
    2
 MD step:        3800 time   9.1917604407189994     
 H     -0.09901258     -0.03539761     -0.18295216     -0.01120699     -0.00662865      0.01238544
 H     -0.02444713     -0.03777942      0.58374690     -0.00222458     -0.00133251      0.03121826
    2
 MD step:        3850 time   9.3127046570442502     
 H     -0.10036468     -0.03620439     -0.18143475     -0.01115362     -0.00678754      0.01259297
 H     -0.02471951     -0.03793550      0.58750310     -0.00227795     -0.00117361      0.03101073
    2
 MD step:        3900 time   9.4336488733695010     
 H     -0.10171040     -0.03703290     -0.17988807     -0.01109341     -0.00683463      0.01308052
 H     -0.02499825     -0.03806984      0.59123004     -0.00233816     -0.00112652      0.03052318
    2
 MD step:        3950 time   9.5545930896947500     
 H     -0.10304614     -0.03786314     -0.17826300     -0.01098728     -0.00690443      0.01391837
 H     -0.02528699     -0.03820246      0.59487858     -0.00244428     -0.00105673      0.02968533
    2
 MD step:        4000 time   9.6755373060200007     
 H     -0.10436691     -0.03869891     -0.17649993     -0.01085288     -0.00691421      0.01524658
 H     -0.02559069     -0.03832954      0.59838913     -0.00257868     -0.00104694      0.02835712
    2
 MD step:        4050 time   9.7964815223452497     
 H     -0.10567216     -0.03954054     -0.17459460     -0.01073701     -0.00706907      0.01613916
 H     -0.02590991     -0.03845077      0.60175741     -0.00269455     -0.00089208      0.02746454
    2
 MD step:        4100 time   9.9174257386705005     
 H     -0.10696537     -0.04040412     -0.17259735     -0.01065217     -0.00715076      0.01683850
 H     -0.02624117     -0.03855005      0.60503377     -0.00277940     -0.00081040      0.02676519
    2
 MD step:        4150 time   10.038369954995749     
 H     -0.10824813     -0.04128012     -0.17053419     -0.01055617     -0.00733022      0.01739774
 H     -0.02658288     -0.03863691      0.60824423     -0.00287539     -0.00063093      0.02620596
    2
 MD step:        4200 time   10.159314171321000     
 H     -0.10951681     -0.04216261     -0.16835552     -0.01041697     -0.00727697      0.01864531
 H     -0.02693866     -0.03871727      0.61133917     -0.00301459     -0.00068418      0.02495839
    2
 MD step:        4250 time   10.280258387646251     
 H     -0.11076681     -0.04304652     -0.16601573     -0.01025353     -0.00735435      0.02005756
 H     -0.02731314     -0.03879622      0.61427300     -0.00317803     -0.00060680      0.02354614
    2
 MD step:        4300 time   10.401202603971500     
 H     -0.11199788     -0.04393972     -0.16350689     -0.01011196     -0.00740000      0.02132149
 H     -0.02770654     -0.03886587      0.61703777     -0.00331961     -0.00056116      0.02228221
    2
 MD step:        4350 time   10.522146820296751     
 H     -0.11321415     -0.04484959     -0.16089096     -0.01000454     -0.00764667      0.02196625
 H     -0.02811474     -0.03891886      0.61969547     -0.00342702     -0.00031449      0.02163745
    2
 MD step:        4400 time   10.643091036622000     
 H     -0.11441796     -0.04577311     -0.15818512     -0.00989665     -0.00765548      0.02272925
 H     -0.02853540     -0.03895819      0.62226324     -0.00353492     -0.00030568      0.02087445
    2
 MD step:        4450 time   10.764035252947250     
 H     -0.11560669     -0.04670596     -0.15537551     -0.00975231     -0.00771272      0.02389795
 H     -0.02897114     -0.03898820      0.62472724     -0.00367926     -0.00024843      0.01970575
    2
 MD step:        4500 time   10.884979469272501     
 H     -0.11677581     -0.04763615     -0.15239478     -0.00958003     -0.00769209      0.02537498
 H     -0.02942649     -0.03902086      0.62702013     -0.00385154     -0.00026907      0.01822872
    2
 MD step:        4550 time   11.005923685597750     
 H     -0.11792501     -0.04857546     -0.14925352     -0.00942976     -0.00784823      0.02655135
 H     -0.02990175     -0.03904441      0.62915248     -0.00400180     -0.00011293      0.01705235
    2
 MD step:        4600 time   11.126867901923001     
 H     -0.11905877     -0.04952655     -0.14599050     -0.00932365     -0.00792966      0.02723742
 H     -0.03039247     -0.03905618      0.63116308     -0.00410792     -0.00003149      0.01636628
    2
 MD step:        4650 time   11.247812118248250     
 H     -0.12018081     -0.05049865     -0.14266559     -0.00922885     -0.00805139      0.02786952
 H     -0.03089490     -0.03904693      0.63311179     -0.00420271      0.00009023      0.01573418
    2
 MD step:        4700 time   11.368756334573501     
 H     -0.12128938     -0.05147092     -0.13924261     -0.00909711     -0.00806727      0.02877670
 H     -0.03141080     -0.03903752      0.63496241     -0.00433446      0.00010611      0.01482700
    2
 MD step:        4750 time   11.489700550898750     
 H     -0.12238011     -0.05244742     -0.13568287     -0.00894013     -0.00807326      0.03010112
 H     -0.03194454     -0.03902387      0.63667629     -0.00449143      0.00011210      0.01350258
    2
 MD step:        4800 time   11.610644767224001     
 H     -0.12345299     -0.05342486     -0.13197595     -0.00881119     -0.00814344      0.03102977
 H     -0.03249613     -0.03900929      0.63824299     -0.00462037      0.00018229      0.01257393
    2
 MD step:        4850 time   11.731588983549251     
 H     -0.12451347     -0.05442289     -0.12819244     -0.00873440     -0.00828343      0.03152874
 H     -0.03306012     -0.03897412      0.63973309     -0.00469716      0.00032227      0.01207495
    2
 MD step:        4900 time   11.852533199874500     
 H     -0.12556597     -0.05542983     -0.12436918     -0.00866766     -0.00841527      0.03171010
 H     -0.03363209     -0.03893003      0.64118344     -0.00476390      0.00045412      0.01189359
    2
 MD step:        4950 time   11.973477416199751     
 H     -0.12660850     -0.05644584     -0.12048784     -0.00856581     -0.00836168      0.03251705
 H     -0.03421403     -0.03887688      0.64257572     -0.00486576      0.00040053      0.01108665
    2
 MD step:        5000 time   12.094421632525000     
 H     -0.12763733     -0.05745795     -0.11650321     -0.00845017     -0.00840143      0.03334426
 H     -0.03480966     -0.03882762      0.64386470     -0.00498140      0.00044028      0.01025944
    2
 MD step:        5050 time   12.215365848850251     
 H     -0.12865429     -0.05848106     -0.11243364     -0.00837816     -0.00847918      0.03387899
 H     -0.03541717     -0.03876736      0.64506876     -0.00505341      0.00051802      0.00972471
    2
 MD step:        5100 time   12.336310065175500     
 H     -0.12966619     -0.05951682     -0.10834827     -0.00835902     -0.00869288      0.03364946
 H     -0.03602975     -0.03869446      0.64625699     -0.00507255      0.00073172      0.00995424
    2
 MD step:        5150 time   12.457254281500751     
 H     -0.13067603     -0.06056754     -0.10427338     -0.00833374     -0.00866615      0.03373677
 H     -0.03664438     -0.03860660      0.64745572     -0.00509782      0.00070500      0.00986693
    2
 MD step:        5200 time   12.578198497826001     
 H     -0.13168072     -0.06161920     -0.10017839     -0.00827555     -0.00870959      0.03407424
 H     -0.03726416     -0.03851779      0.64863434     -0.00515602      0.00074844      0.00952945
    2
 MD step:        5250 time   12.699142714151250     
 H     -0.13267844     -0.06267391     -0.09603237     -0.00823182     -0.00872660      0.03440872
 H     -0.03789090     -0.03842593      0.64976195     -0.00519974      0.00076545      0.00919498
    2
 MD step:        5300 time   12.820086930476501     
 H     -0.13367484     -0.06374184     -0.09189708     -0.00825349     -0.00896178      0.03393147
 H     -0.03851898     -0.03832086      0.65090027     -0.00517807      0.00100062      0.00967222
    2
 MD step:        5350 time   12.941031146801750     
 H     -0.13467598     -0.06482660     -0.08782231     -0.00829923     -0.00899029      0.03338505
 H     -0.03914230     -0.03819896      0.65209911     -0.00513233      0.00102913      0.01021865
    2
 MD step:        5400 time   13.061975363127001     
 H     -0.13568103     -0.06592024     -0.08380639     -0.00831244     -0.00904594      0.03316971
 H     -0.03976173     -0.03806818      0.65335681     -0.00511913      0.00108479      0.01043398
    2
 MD step:        5450 time   13.182919579452250     
 H     -0.13668647     -0.06701381     -0.07979576     -0.00831965     -0.00905245      0.03308796
 H     -0.04038076     -0.03793747      0.65461979     -0.00511192      0.00109130      0.01051573
    2
 MD step:        5500 time   13.303863795777501     
 H     -0.13769632     -0.06812240     -0.07583770     -0.00838986     -0.00928223      0.03233504
 H     -0.04099538     -0.03779172      0.65593535     -0.00504171      0.00132107      0.01126866
    2
 MD step:        5550 time   13.424808012102751     
 H     -0.13871762     -0.06924790     -0.07198661     -0.00849845     -0.00937560      0.03125493
 H     -0.04159855     -0.03762908      0.65735787     -0.00493312      0.00141444      0.01234877
    2
 MD step:        5600 time   13.545752228428000     
 H     -0.13975058     -0.07038832     -0.06825320     -0.00857370     -0.00942457      0.03061843
 H     -0.04219005     -0.03745152      0.65889808     -0.00485786      0.00146341      0.01298526
    2
 MD step:        5650 time   13.666696444753251     
 H     -0.14079095     -0.07152894     -0.06457760     -0.00863530     -0.00946181      0.03010145
 H     -0.04277416     -0.03727376      0.66049609     -0.00479627      0.00150066      0.01350225
    2
 MD step:        5700 time   13.787640661078500     
 H     -0.14184208     -0.07268829     -0.06099952     -0.00875720     -0.00968044      0.02905230
 H     -0.04334750     -0.03707726      0.66219163     -0.00467436      0.00171929      0.01455139
    2
 MD step:        5750 time   13.908584877403751     
 H     -0.14291087     -0.07386549     -0.05757221     -0.00891585     -0.00984298      0.02757058
 H     -0.04390318     -0.03686291      0.66403793     -0.00451571      0.00188183      0.01603312
    2
 MD step:        5800 time   14.029529093729000     
 H     -0.14399671     -0.07506000     -0.05429565     -0.00903101     -0.00987131      0.02670220