    2
 MD step:           0 time   0.0000000000000000     
 H      0.00000000      0.00000000     -0.37000000      0.01638888     -0.02389629      0.02041766
 H      0.00000000      0.00000000      0.37000000     -0.02649406      0.04079572     -0.03193583
    2
 MD step:          50 time  0.12094421632525000     
 H      0.00198212     -0.00289024     -0.36754331      0.01638792     -0.02389996      0.02015877
 H     -0.00320428      0.00493412      0.36615025     -0.02649310      0.04079939     -0.03167693
    2
 MD step:         100 time  0.24188843265050000     
 H      0.00396433     -0.00578133     -0.36513510      0.01639423     -0.02390850      0.01961790
 H     -0.00640866      0.00986911      0.36234899     -0.02649941      0.04080793     -0.03113606
    2
 MD step:         150 time  0.36283264897575002     
 H      0.00594805     -0.00867396     -0.36280915      0.01641053     -0.02392924      0.01880087
 H     -0.00961454      0.01480563      0.35862998     -0.02651571      0.04082867     -0.03031904
    2
 MD step:         200 time  0.48377686530100000     
 H      0.00793423     -0.01157046     -0.36059836      0.01643556     -0.02397359      0.01771237
 H     -0.01282288      0.01974601      0.35502614     -0.02654074      0.04087302     -0.02923053
    2
 MD step:         250 time  0.60472108162625005     
 H      0.00992454     -0.01447368     -0.35853535      0.01648183     -0.02403882      0.01635977
 H     -0.01603535      0.02469312      0.35157007     -0.02658701      0.04093825     -0.02787794
    2
 MD step:         300 time  0.72566529795150003     
 H      0.01192167     -0.01738652     -0.35665081      0.01654692     -0.02413544      0.01476611
 H     -0.01925465      0.02964985      0.34829248     -0.02665210      0.04103487     -0.02628427
    2
 MD step:         350 time  0.84660951427675002     
 H      0.01392780     -0.02031336     -0.35497280      0.01663136     -0.02427075      0.01294704
 H     -0.02248294      0.03462058      0.34522141     -0.02673654      0.04117018     -0.02446521
    2
 MD step:         400 time  0.96755373060200001     
 H      0.01594599     -0.02325850     -0.35352707      0.01674710     -0.02443806      0.01093001
 H     -0.02572330      0.03960960      0.34238262     -0.02685228      0.04133749     -0.02244818
    2
 MD step:         450 time   1.0884979469272500     
 H      0.01797960     -0.02622641     -0.35233526      0.01688572     -0.02464822      0.00875369
 H     -0.02897907      0.04462141      0.33979776     -0.02699090      0.04154765     -0.02027185
    2
 MD step:         500 time   1.2094421632525001     
 H      0.02003137     -0.02922242     -0.35141500      0.01704936     -0.02490062      0.00644605
 H     -0.03225300      0.04966130      0.33748445     -0.02715455      0.04180005     -0.01796422
    2
 MD step:         550 time   1.3303863795777500     
 H      0.02210493     -0.03225088     -0.35077956      0.01724314     -0.02518680      0.00405205
 H     -0.03554872      0.05473365      0.33545595     -0.02734832      0.04208623     -0.01557021
    2
 MD step:         600 time   1.4513305959030001     
 H      0.02420309     -0.03531638     -0.35043662      0.01745595     -0.02551271      0.00161348
 H     -0.03886905      0.05984304      0.33371995     -0.02756113      0.04241214     -0.01313164
    2
 MD step:         650 time   1.5722748122282502     
 H      0.02632824     -0.03842325     -0.35038937      0.01769168     -0.02586673     -0.00082880
 H     -0.04221636      0.06499380      0.33227965     -0.02779686      0.04276616     -0.01068937
    2
 MD step:         700 time   1.6932190285535000     
 H      0.02848306     -0.04157425     -0.35063531      0.01794312     -0.02624378     -0.00322657
 H     -0.04559335      0.07018868      0.33113253     -0.02804830      0.04314321     -0.00829159
    2
 MD step:         750 time   1.8141632448787501     
 H      0.03066874     -0.04477215     -0.35116679      0.01820125     -0.02664101     -0.00554549
 H     -0.04900119      0.07543047      0.33027096     -0.02830643      0.04354044     -0.00597267
    2
 MD step:         800 time   1.9351074612040000     
 H      0.03288626     -0.04801830     -0.35197164      0.01846932     -0.02703886     -0.00774009
 H     -0.05244087      0.08072051      0.32968275     -0.02857450      0.04393829     -0.00377807
    2
 MD step:         850 time   2.0560516775292501     
 H      0.03513597     -0.05131255     -0.35303245      0.01873179     -0.02743566     -0.00977399
 H     -0.05591274      0.08605865      0.32935051     -0.02883697      0.04433509     -0.00174417
    2
 MD step:         900 time   2.1769958938545000     
 H      0.03741674     -0.05465430     -0.35432844      0.01898313     -0.02782119     -0.01162241
 H     -0.05941567      0.09144429      0.32925345     -0.02908832      0.04472062      0.00010425
    2
 MD step:         950 time   2.2979401101797499     
 H      0.03972738     -0.05804086     -0.35583493      0.01922265     -0.02817652     -0.01325102
 H     -0.06294848      0.09687474      0.32936687     -0.02932783      0.04507594      0.00173286
    2
 MD step:        1000 time   2.4188843265050002     
 H      0.04206541     -0.06146859     -0.35752414      0.01943529     -0.02850059     -0.01464356
 H     -0.06650867      0.10234635      0.32966303     -0.02954047      0.04540002      0.00312539
    2
 MD step:        1050 time   2.5398285428302501     
 H      0.04442733     -0.06493309     -0.35936690      0.01961915     -0.02878010     -0.01578543
 H     -0.07009276      0.10785474      0.33011273     -0.02972433      0.04567953      0.00426727
    2
 MD step:        1100 time   2.6607727591554999     
 H      0.04680969     -0.06842788     -0.36133178      0.01976953     -0.02900297     -0.01666172
 H     -0.07369728      0.11339342      0.33068456     -0.02987471      0.04590239      0.00514356
    2
 MD step:        1150 time   2.7817169754807503     
 H      0.04920762     -0.07194624     -0.36338658      0.01987579     -0.02916904     -0.01727424
 H     -0.07731737      0.11895567      0.33134631     -0.02998098      0.04606847      0.00575607
    2
 MD step:        1200 time   2.9026611918060001     
 H      0.05161574     -0.07548070     -0.36549937      0.01994023     -0.02926489     -0.01761933
 H     -0.08094766      0.12453401      0.33206604     -0.03004541      0.04616432      0.00610116
    2
 MD step:        1250 time   3.0236054081312500     
 H      0.05402893     -0.07902214     -0.36763781      0.01995645     -0.02928637     -0.01769864
 H     -0.08458301      0.13011934      0.33281142     -0.03006163      0.04618580      0.00618048
    2
 MD step:        1300 time   3.1445496244565003     
 H      0.05644079     -0.08256180     -0.36977032      0.01991785     -0.02923558     -0.01752464
 H     -0.08821704      0.13570289      0.33355088     -0.03002304      0.04613501      0.00600647
    2
 MD step:        1350 time   3.2654938407817502     
 H      0.05884492     -0.08609049     -0.37186691      0.01983086     -0.02910156     -0.01710604
 H     -0.09184333      0.14127547      0.33425441     -0.02993604      0.04600099      0.00558787
    2
 MD step:        1400 time   3.3864380571070001     
 H      0.06123538     -0.08959789     -0.37389860      0.01968925     -0.02888548     -0.01645205
 H     -0.09545595      0.14682676      0.33489305     -0.02979443      0.04578491      0.00493388
    2
 MD step:        1450 time   3.5073822734322500     
 H      0.06360522     -0.09307439     -0.37583767      0.01948986     -0.02859132     -0.01557861
 H     -0.09904795      0.15234715      0.33543906     -0.02959505      0.04549075      0.00406045
    2
 MD step:        1500 time   3.6283264897575003     
 H      0.06594777     -0.09651038     -0.37765877      0.01924042     -0.02821334     -0.01450460
 H     -0.10261267      0.15782703      0.33586710     -0.02934560      0.04511277      0.00298643
    2
 MD step:        1550 time   3.7492707060827501     
 H      0.06825702     -0.09989570     -0.37933864      0.01893716     -0.02775521     -0.01324330
 H     -0.10614408      0.16325624      0.33615392     -0.02904234      0.04465464      0.00172514
    2
 MD step:        1600 time   3.8702149224080000     
 H      0.07052635     -0.10322085     -0.38085507      0.01858066     -0.02721920     -0.01180622
 H     -0.10963557      0.16862528      0.33627729     -0.02868584      0.04411863      0.00028805
    2
 MD step:        1650 time   3.9911591387332503     
 H      0.07274949     -0.10647669     -0.38218831      0.01817532     -0.02660819     -0.01021843
 H     -0.11308088      0.17392500      0.33621748     -0.02828050      0.04350762     -0.00129974
    2
 MD step:        1700 time   4.1121033550585002     
 H      0.07492073     -0.10965429     -0.38332148      0.01772104     -0.02592716     -0.00849784
 H     -0.11647427      0.17914650      0.33595760     -0.02782622      0.04282659     -0.00302032
    2
 MD step:        1750 time   4.2330475713837501     
 H      0.07703436     -0.11274514     -0.38423867      0.01722407     -0.02517322     -0.00665024
 H     -0.11981007      0.18428123      0.33548173     -0.02732925      0.04207265     -0.00486792
    2
 MD step:        1800 time   4.3539917877090000     
 H      0.07908519     -0.11574091     -0.38492585      0.01668272     -0.02435620     -0.00469769
 H     -0.12308307      0.18932089      0.33477585     -0.02678790      0.04125563     -0.00682048
    2
 MD step:        1850 time   4.4749360040342498     
 H      0.08106799     -0.11863443     -0.38537170      0.01609885     -0.02348406     -0.00266168
 H     -0.12628803      0.19425830      0.33382865     -0.02620403      0.04038349     -0.00885648
    2
 MD step:        1900 time   4.5958802203594997     
 H      0.08297810     -0.12141896     -0.38556662      0.01548336     -0.02255203     -0.00055068
 H     -0.12942030      0.19908672      0.33263051     -0.02558854      0.03945146     -0.01096749
    2
 MD step:        1950 time   4.7168244366847505     
 H      0.08481180     -0.12408750     -0.38550250      0.01483353     -0.02156878      0.00162079
 H     -0.13247617      0.20379914      0.33117333     -0.02493871      0.03846821     -0.01313896
    2
 MD step:        2000 time   4.8377686530100004     
 H      0.08656485     -0.12663445     -0.38517267      0.01415042     -0.02054286      0.00383939
 H     -0.13545138      0.20838998      0.32945045     -0.02425560      0.03744229     -0.01535755
    2
 MD step:        2050 time   4.9587128693352502     
 H      0.08823361     -0.12905496     -0.38457255      0.01344236     -0.01947670      0.00608785
 H     -0.13834230      0.21285438      0.32745727     -0.02354754      0.03637613     -0.01760601
    2
 MD step:        2100 time   5.0796570856605001     
 H      0.08981548     -0.13134422     -0.38369955      0.01271186     -0.01837527      0.00835107
 H     -0.14114634      0.21718753      0.32519122     -0.02281705      0.03527470     -0.01986923
    2
 MD step:        2150 time   5.2006013019857500     
 H      0.09130771     -0.13349840     -0.38255190      0.01196188     -0.01724201      0.01062790
 H     -0.14386072      0.22138560      0.32265052     -0.02206706      0.03414144     -0.02214606
    2
 MD step:        2200 time   5.3215455183109999     
 H      0.09270820     -0.13551395     -0.38112895      0.01119505     -0.01608490      0.01290100
 H     -0.14648338      0.22544504      0.31983451     -0.02130024      0.03298433     -0.02441917
    2
 MD step:        2250 time   5.4424897346362506     
 H      0.09401515     -0.13738854     -0.37943224      0.01041468     -0.01491296      0.01515239
 H     -0.14901250      0.22936351      0.31674474     -0.02051987      0.03181239     -0.02667056
    2
 MD step:        2300 time   5.5634339509615005     
 H      0.09522712     -0.13912072     -0.37746478      0.00962786     -0.01372802      0.01737740
 H     -0.15144663      0.23313958      0.31338423     -0.01973305      0.03062745     -0.02889556
    2
 MD step:        2350 time   5.6843781672867504     
 H      0.09634396     -0.14070877     -0.37523043      0.00883957     -0.01253311      0.01956415
 H     -0.15378563      0.23677152      0.30975682     -0.01894475      0.02943254     -0.03108231
    2
 MD step:        2400 time   5.8053223836120003     
 H      0.09736521     -0.14215244     -0.37273430      0.00804839     -0.01134165      0.02170343
 H     -0.15602904      0.24025908      0.30586764     -0.01815358      0.02824108     -0.03322160
    2
 MD step:        2450 time   5.9262665999372501     
 H      0.09829090     -0.14345268     -0.36998313      0.00726174     -0.01016108      0.02377991
 H     -0.15817690      0.24360320      0.30172341     -0.01736692      0.02706051     -0.03529808
    2
 MD step:        2500 time   6.0472108162625000     
 H      0.09912239     -0.14461077     -0.36698543      0.00648965     -0.00899376      0.02577814
 H     -0.16023055      0.24680518      0.29733266     -0.01659483      0.02589319     -0.03729630
    2
 MD step:        2550 time   6.1681550325877499     
 H      0.09986122     -0.14562916     -0.36375086      0.00573178     -0.00785058      0.02769665
 H     -0.16219154      0.24986746      0.29270503     -0.01583696      0.02475001     -0.03921482
    2
 MD step:        2600 time   6.2890992489130007     
 H      0.10050969     -0.14651106     -0.36028977      0.00499534     -0.00673969      0.02952093
 H     -0.16406217      0.25279325      0.28785088     -0.01510052      0.02363912     -0.04103909
    2
 MD step:        2650 time   6.4100434652382505     
 H      0.10107073     -0.14726116     -0.35661467      0.00428705     -0.00567321      0.03123212
 H     -0.16584538      0.25558724      0.28278273     -0.01439223      0.02257264     -0.04275028
    2
 MD step:        2700 time   6.5309876815635004     
 H      0.10154797     -0.14788558     -0.35273988      0.00361262     -0.00466063      0.03282344
 H     -0.16754479      0.25825555      0.27751488     -0.01371781      0.02156006     -0.04434161
    2
 MD step:        2750 time   6.6519318978887503     
 H      0.10194643     -0.14839075     -0.34868031      0.00298325     -0.00370502      0.03428518
 H     -0.16916541      0.26080461      0.27206225     -0.01308843      0.02060445     -0.04580334
    2
 MD step:        2800 time   6.7728761142140002     
 H      0.10227142     -0.14878482     -0.34445235      0.00239919     -0.00282553      0.03560497
 H     -0.17071256      0.26324257      0.26644125     -0.01250437      0.01972496     -0.04712313
    2
 MD step:        2850 time   6.8938203305392500     
 H      0.10252889     -0.14907786     -0.34007416      0.00186953     -0.00203458      0.03676877
 H     -0.17219219      0.26557949      0.26067000     -0.01197471      0.01893401     -0.04828694
    2
 MD step:        2900 time   7.0147645468644999     
 H      0.10272649     -0.14928052     -0.33556514      0.00140887     -0.00133393      0.03776665
 H     -0.17361196      0.26782604      0.25476792     -0.01151405      0.01823336     -0.04928482
    2
 MD step:        2950 time   7.1357087631897507     
 H      0.10287239     -0.14940489     -0.33094559      0.00101618     -0.00074154      0.03859545
 H     -0.17498002      0.26999429      0.24875532     -0.01112136      0.01764097     -0.05011361
    2
 MD step:        3000 time   7.2566529795150005     
 H      0.10297532     -0.14946490     -0.32623673      0.00070015     -0.00027146      0.03924183
 H     -0.17630512      0.27209819      0.24265340     -0.01080533      0.01717089     -0.05076000
    2
 MD step:        3050 time   7.3775971958402504     
 H      0.10304548     -0.14947561     -0.32146129      0.00047439      0.00007127      0.03969491
 H     -0.17759743      0.27415280      0.23648491     -0.01057957      0.01682816     -0.05121308
    2
 MD step:        3100 time   7.4985414121655003     
 H      0.10309374     -0.14945329     -0.31664253      0.00034009      0.00027441      0.03995903
 H     -0.17886786      0.27617436      0.23027309     -0.01044527      0.01662502     -0.05147720
    2
 MD step:        3150 time   7.6194856284907502     
 H      0.10313162     -0.14941545     -0.31180361      0.00030347      0.00032540      0.04002692
 H     -0.18012790      0.27818041      0.22404111     -0.01040865      0.01657403     -0.05154508
    2
 MD step:        3200 time   7.7404298448160000     
 H      0.10317155     -0.14938092     -0.30696876      0.00037403      0.00021775      0.03989145
 H     -0.18138999      0.28018977      0.21781321     -0.01047921      0.01668168     -0.05140962
    2
 MD step:        3250 time   7.8613740611412499     
 H      0.10322651     -0.14936929     -0.30216194      0.00055391     -0.00005247      0.03956516
 H     -0.18266712      0.28222203      0.21161333     -0.01065909      0.01695190     -0.05108333
    2
 MD step:        3300 time   7.9823182774665007     
 H      0.10330992     -0.14940062     -0.29740608      0.00084454     -0.00049404      0.03904872
 H     -0.18397269      0.28429724      0.20546442     -0.01094972      0.01739347     -0.05056688
    2
 MD step:        3350 time   8.1032624937917497     
 H      0.10343545     -0.14949578     -0.29272419      0.00124958     -0.00110889      0.03834405
 H     -0.18532038      0.28643629      0.19938948     -0.01135476      0.01800832     -0.04986221
    2
 MD step:        3400 time   8.2242067101170004     
 H      0.10361684     -0.14967544     -0.28813770      0.00176853     -0.00188997      0.03747359
 H     -0.18672393      0.28865985      0.19340993     -0.01187371      0.01878940     -0.04899175
    2
 MD step:        3450 time   8.3451509264422494     
 H      0.10386752     -0.14995979     -0.28366603      0.00239570     -0.00283910      0.03644672
 H     -0.18819679      0.29098808      0.18754521     -0.01250088      0.01973853     -0.04796488
    2
 MD step:        3500 time   8.4660951427675002     
 H      0.10420049     -0.15036866     -0.27932745      0.00312717     -0.00394722      0.03527835
 H     -0.18975192      0.29344084      0.18181357     -0.01323235      0.02084665     -0.04679651
    2
 MD step:        3550 time   8.5870393590927510     
 H      0.10462794     -0.15092017     -0.27513708      0.00395557     -0.00519679      0.03399848
 H     -0.19140152      0.29603624      0.17623014     -0.01406075      0.02209622     -0.04551664
    2
 MD step:        3600 time   8.7079835754179999     
 H      0.10516074     -0.15163097     -0.27110738      0.00486896     -0.00657750      0.03262390
 H     -0.19315649      0.29879093      0.17080739     -0.01497414      0.02347693     -0.04414207
    2
 MD step:        3650 time   8.8289277917432507     
 H      0.10580852     -0.15251565     -0.26724839      0.00585456     -0.00806676      0.03118331
 H     -0.19502644      0.30171949      0.16555534     -0.01595974      0.02496619     -0.04270148
    2
 MD step:        3700 time   8.9498720080684997     
 H      0.10657910     -0.15358570     -0.26356599      0.00689558     -0.00964137      0.02970686
 H     -0.19701918      0.30483343      0.16047988     -0.01700076      0.02654080     -0.04122503
    2
 MD step:        3750 time   9.0708162243937505     
 H      0.10747825     -0.15485017     -0.26006335      0.00797778     -0.01127662      0.02821454
 H     -0.19914049      0.30814179      0.15558419     -0.01808296      0.02817605     -0.03973271
    2
 MD step:        3800 time   9.1917604407189994     
 H      0.10850968     -0.15631448     -0.25674029      0.00908050     -0.01294046      0.02674273
 H     -0.20139408      0.31164999      0.15086807     -0.01918568      0.02983989     -0.03826089
    2
 MD step:        3850 time   9.3127046570442502     
 H      0.10967460     -0.15798061     -0.25359288      0.01018267     -0.01460893      0.02531319
 H     -0.20378116      0.31536001      0.14632761     -0.02028785      0.03150836     -0.03683136
    2
 MD step:        3900 time   9.4336488733695010     
 H      0.11097207     -0.15984706     -0.25061487      0.01126780     -0.01624832      0.02394673
 H     -0.20630080      0.31927034      0.14195654     -0.02137298      0.03314775     -0.03546490
    2
 MD step:        3950 time   9.5545930896947500     
 H      0.11239860     -0.16190839     -0.24779667      0.01231319     -0.01782828      0.02267259
 H     -0.20894950      0.32337557      0.13774529     -0.02241838      0.03472771     -0.03419076
    2
 MD step:        4000 time   9.6755373060200007     
 H      0.11394823     -0.16415609     -0.24512640      0.01330231     -0.01932341      0.02150240
 H     -0.21172128      0.32766715      0.13368196     -0.02340749      0.03622284     -0.03302056
    2
 MD step:        4050 time   9.7964815223452497     
 H      0.11561317     -0.16657793     -0.24259056      0.01421640     -0.02070361      0.02045425
 H     -0.21460839      0.33213288      0.12975307     -0.02432158      0.03760304     -0.03197242
    2
 MD step:        4100 time   9.9174257386705005     
 H      0.11738326     -0.16915866     -0.24017339      0.01503766     -0.02194927      0.01954039
 H     -0.21760064      0.33675750      0.12594284     -0.02514284      0.03884870     -0.03105855
    2
 MD step:        4150 time   10.038369954995749     
 H      0.11924664     -0.17188071     -0.23785847      0.01575783     -0.02303619      0.01876338
 H     -0.22068618      0.34152344      0.12223486     -0.02586301      0.03993562     -0.03028155
    2
 MD step:        4200 time   10.159314171321000     
 H      0.12119018     -0.17472378     -0.23562874      0.01636173     -0.02394736      0.01813348
 H     -0.22385189      0.34641040      0.11861208     -0.02646691      0.04084679     -0.02965164
    2
 MD step:        4250 time   10.280258387646251     
 H      0.12319918     -0.17766601     -0.23346638      0.01683932     -0.02467510      0.01764850
 H     -0.22708305      0.35139652      0.11505666     -0.02694450      0.04157453     -0.02916667
    2
 MD step:        4300 time   10.401202603971500     
 H      0.12525837     -0.18068433     -0.23135425      0.01718989     -0.02520434      0.01730223
 H     -0.23036441      0.35645873      0.11155147     -0.02729507      0.04210377     -0.02882040
    2
 MD step:        4350 time   10.522146820296751     
 H      0.12735180     -0.18375435     -0.22927538      0.01740564     -0.02552908      0.01709767
 H     -0.23368000      0.36157263      0.10807955     -0.02751082      0.04242851     -0.02861584
    2
 MD step:        4400 time   10.643091036622000     
 H      0.12946297     -0.18685151     -0.22721322      0.01748393     -0.02565264      0.01702419
 H     -0.23701333      0.36671367      0.10462434     -0.02758911      0.04255207     -0.02854235
    2
 MD step:        4450 time   10.764035252947250     
 H      0.13157562     -0.18995116     -0.22515272      0.01742903     -0.02557161      0.01706934
 H     -0.24034815      0.37185722      0.10117078     -0.02753421      0.04247104     -0.02858750
    2
 MD step:        4500 time   10.884979469272501     
 H      0.13367355     -0.19302867     -0.22307956      0.01724152     -0.02528653      0.01723172
 H     -0.24366824      0.37697862      0.09770457     -0.02734670      0.04218596     -0.02874989
    2
 MD step:        4550 time   11.005923685597750     
 H      0.13574079     -0.19605999     -0.22098036      0.01692294     -0.02480891      0.01749781
 H     -0.24695764      0.38205383      0.09421231     -0.02702812      0.04170834     -0.02901598
    2
 MD step:        4600 time   11.126867901923001     
 H      0.13776202     -0.19902217     -0.21884356      0.01648014     -0.02414508      0.01785221
 H     -0.25020103      0.38705989      0.09068246     -0.02658532      0.04104451     -0.02937037
    2
 MD step:        4650 time   11.247812118248250     
 H      0.13972251     -0.20189292     -0.21665864      0.01592078     -0.02329749      0.01829172
 H     -0.25338369      0.39197453      0.08710448     -0.02602596      0.04019692     -0.02980989
    2
 MD step:        4700 time   11.368756334573501     
 H      0.14160844     -0.20465086     -0.21441607      0.01524786     -0.02228197      0.01880384
 H     -0.25649178      0.39677636      0.08346885     -0.02535304      0.03918140     -0.03032200
    2
 MD step:        4750 time   11.489700550898750     
 H      0.14340652     -0.20727647     -0.21210796      0.01446858     -0.02111217      0.01937341
 H     -0.25951203      0.40144586      0.07976769     -0.02457376      0.03801160     -0.03089157
    2
 MD step:        4800 time   11.610644767224001     
 H      0.14510449     -0.20975157     -0.20972772      0.01359535     -0.01979228      0.01999509
 H     -0.26243215      0.40596484      0.07599439     -0.02370054      0.03669171     -0.03151326
    2
 MD step:        4850 time   11.731588983549251     
 H      0.14669141     -0.21205855     -0.20726968      0.01263235     -0.01833587      0.02065925
 H     -0.26524124      0.41031572      0.07214330     -0.02273753      0.03523530     -0.03217742
    2
 MD step:        4900 time   11.852533199874500     
 H      0.14815680     -0.21418199     -0.20472923      0.01158627     -0.01676049      0.02135528
 H     -0.26792879      0.41448304      0.06820980     -0.02169145      0.03365992     -0.03287345
    2
 MD step:        4950 time   11.973477416199751     
 H      0.14949108     -0.21610829     -0.20210307      0.01046808     -0.01507515      0.02207530
 H     -0.27048524      0.41845323      0.06419057     -0.02057326      0.03197458     -0.03359347
    2
 MD step:        5000 time   12.094421632525000     
 H      0.15068631     -0.21782448     -0.19938895      0.00928633     -0.01328978      0.02280943
 H     -0.27290263      0.42221331      0.06008340     -0.01939151      0.03018921     -0.03432760
    2
 MD step:        5050 time   12.215365848850251     
 H      0.15173508     -0.21931934     -0.19658522      0.00804757     -0.01141710      0.02355545
 H     -0.27517356      0.42575206      0.05588662     -0.01815275      0.02831653     -0.03507362
    2
 MD step:        5100 time   12.336310065175500     
 H      0.15263084     -0.22058335     -0.19369101      0.00675848     -0.00947379      0.02430447
 H     -0.27729149      0.42905996      0.05159936     -0.01686366      0.02637322     -0.03582264
    2
 MD step:        5150 time   12.457254281500751     
 H      0.15336827     -0.22160848     -0.19070662      0.00542876     -0.00746952      0.02504582
 H     -0.27925108      0.43212897      0.04722191     -0.01553394      0.02436895     -0.03656398
    2
 MD step:        5200 time   12.578198497826001     
 H      0.15394272     -0.22238796     -0.18763294      0.00406671     -0.00541150      0.02578043
 H     -0.28104769      0.43495234      0.04275517     -0.01417189      0.02231093     -0.03729860
    2
 MD step:        5250 time   12.699142714151250     
 H      0.15435088     -0.22291587     -0.18447119      0.00267869     -0.00331290      0.02650197
 H     -0.28267802      0.43752414      0.03820036     -0.01278387      0.02021233     -0.03802013
    2
 MD step:        5300 time   12.820086930476501     
 H      0.15458989     -0.22318821     -0.18122320      0.00127050     -0.00118806      0.02720444
 H     -0.28413919      0.43984037      0.03355932     -0.01137568      0.01808748     -0.03872261
    2
 MD step:        5350 time   12.941031146801750     
 H      0.15465764     -0.22320270     -0.17789161     -0.00015033      0.00095146      0.02788453
 H     -0.28542910      0.44189875      0.02883468     -0.00995485      0.01594797     -0.03940270
    2
 MD step:        5400 time   13.061975363127001     
 H      0.15455349     -0.22295756     -0.17447943     -0.00157261      0.00310233      0.02853669
 H     -0.28654712      0.44369749      0.02402943     -0.00853257      0.01379710     -0.04005486
    2
 MD step:        5450 time   13.182919579452250     
 H      0.15427734     -0.22245239     -0.17098995     -0.00299274      0.00524999      0.02916224
 H     -0.28749313      0.44523621      0.01914690     -0.00711244      0.01164944     -0.04068040
    2
 MD step:        5500 time   13.303863795777501     
 H      0.15382985     -0.22168848     -0.16742669     -0.00440502      0.00737874      0.02975648
 H     -0.28826780      0.44651619      0.01419059     -0.00570016      0.00952069     -0.04127465
    2
 MD step:        5550 time   13.424808012102751     
 H      0.15321267     -0.22066856     -0.16379373     -0.00579791      0.00948143      0.03031325
 H     -0.28887279      0.44754016      0.00916458     -0.00430728      0.00741800     -0.04183142
    2
 MD step:        5600 time   13.545752228428000     
 H      0.15242836     -0.21939664     -0.16009570     -0.00716601      0.01154557      0.03083365
 H     -0.28931064      0.44831213      0.00407349     -0.00293917      0.00535386     -0.04235182
    2
 MD step:        5650 time   13.666696444753251     
 H      0.15148070     -0.21787767     -0.15633698     -0.00849933      0.01356288      0.03131633
 H     -0.28958514      0.44883705     -0.00107829     -0.00160586      0.00333655     -0.04283449
    2
 MD step:        5700 time   13.787640661078500     
 H      0.15037416     -0.21611851     -0.15252223     -0.00979145      0.01551533      0.03175899
 H     -0.28970077      0.44912177     -0.00628610     -0.00031373      0.00138410     -0.04327716
    2
 MD step:        5750 time   13.908584877403751     
 H      0.14911408     -0.21412800     -0.14865658     -0.01103644      0.01738741      0.03215887
 H     -0.28966285      0.44917515     -0.01154480      0.00093126     -0.00048798     -0.04367703
    2
 MD step:        5800 time   14.029529093729000     
 H      0.14770720     -0.21191599     -0.14474515     -0.01221798      0.01917561      0.03251513