    2
 MD step:           0 time   0.0000000000000000     
 H      0.00000000      0.00000000     -0.37000000     -0.04533741      0.00771705     -0.02184836
 H      0.00000000      0.00000000      0.37000000     -0.01392130      0.02153634      0.00391386
    2
 MD step:          50 time  0.12094421632525000     
 H     -0.00548332      0.00093043     -0.37265808     -0.04533806      0.00761927     -0.02221320
 H     -0.00168368      0.00260759      0.37048901     -0.01392065      0.02163411      0.00427870
    2
 MD step:         100 time  0.24188843265050000     
 H     -0.01096684      0.00184324     -0.37537245     -0.04534064      0.00753871     -0.02264741
 H     -0.00336716      0.00523282      0.37103430     -0.01391807      0.02171467      0.00471292
    2
 MD step:         150 time  0.36283264897575002     
 H     -0.01645062      0.00275093     -0.37813730     -0.04534139      0.00745882     -0.02296189
 H     -0.00505037      0.00786315      0.37163008     -0.01391732      0.02179457      0.00502739
    2
 MD step:         200 time  0.48377686530100000     
 H     -0.02193408      0.00365360     -0.38089539     -0.04533526      0.00746618     -0.02261344
 H     -0.00673391      0.01049851      0.37221910     -0.01392345      0.02178720      0.00467894
    2
 MD step:         250 time  0.60472108162625005     
 H     -0.02741665      0.00455456     -0.38361342     -0.04532827      0.00738468     -0.02245346
 H     -0.00841834      0.01313558      0.37276805     -0.01393044      0.02186870      0.00451897
    2
 MD step:         300 time  0.72566529795150003     
 H     -0.03289853      0.00543677     -0.38632817     -0.04532281      0.00727433     -0.02237906
 H     -0.01010346      0.01579140      0.37331372     -0.01393590      0.02197905      0.00444456
    2
 MD step:         350 time  0.84660951427675002     
 H     -0.03837931      0.00631515     -0.38902595     -0.04530789      0.00722042     -0.02216762
 H     -0.01178968      0.01845105      0.37384244     -0.01395082      0.02203297      0.00423312
    2
 MD step:         400 time  0.96755373060200001     
 H     -0.04385722      0.00718829     -0.39165863     -0.04527584      0.00722607     -0.02131998
 H     -0.01347877      0.02111593      0.37430604     -0.01398287      0.02202731      0.00338548
    2
 MD step:         450 time   1.0884979469272500     
 H     -0.04933082      0.00806202     -0.39418498     -0.04523966      0.00718931     -0.02056566
 H     -0.01517217      0.02378023      0.37466331     -0.01401905      0.02206408      0.00263117
    2
 MD step:         500 time   1.2094421632525001     
 H     -0.05480032      0.00891928     -0.39664399     -0.04520727      0.00704104     -0.02003983
 H     -0.01686966      0.02646099      0.37495325     -0.01405144      0.02221234      0.00210533
    2
 MD step:         550 time   1.3303863795777500     
 H     -0.06026549      0.00977182     -0.39903264     -0.04516445      0.00701325     -0.01945951
 H     -0.01857149      0.02914649      0.37517282     -0.01409426      0.02224013      0.00152502
    2
 MD step:         600 time   1.4513305959030001     
 H     -0.06572399      0.01061862     -0.40132133     -0.04509602      0.00702190     -0.01828947
 H     -0.02027999      0.03183771      0.37529244     -0.01416269      0.02223149      0.00035497
    2
 MD step:         650 time   1.5722748122282502     
 H     -0.07117315      0.01147010     -0.40345240     -0.04501419      0.00704197     -0.01700137
 H     -0.02199783      0.03452425      0.37525444     -0.01424452      0.02221141     -0.00093313
    2
 MD step:         700 time   1.6932190285535000     
 H     -0.07661275      0.01231188     -0.40545224     -0.04493910      0.00688804     -0.01604870
 H     -0.02372523      0.03722051      0.37508520     -0.01431961      0.02236534     -0.00188580
    2
 MD step:         750 time   1.8141632448787501     
 H     -0.08204350      0.01314664     -0.40733757     -0.04486418      0.00688337     -0.01519256
 H     -0.02546147      0.03992377      0.37480146     -0.01439453      0.02237001     -0.00274194
    2
 MD step:         800 time   1.9351074612040000     
 H     -0.08746393      0.01397386     -0.40911188     -0.04476454      0.00685372     -0.01399334
 H     -0.02720805      0.04263458      0.37440670     -0.01449417      0.02239967     -0.00394116
    2
 MD step:         850 time   2.0560516775292501     
 H     -0.09287035      0.01480840     -0.41070972     -0.04463617      0.00692948     -0.01242366
 H     -0.02896862      0.04533807      0.37383546     -0.01462254      0.02232391     -0.00551084
    2
 MD step:         900 time   2.1769958938545000     
 H     -0.09826095      0.01564286     -0.41212730     -0.04450762      0.00684257     -0.01105027
 H     -0.03074501      0.04804164      0.37308397     -0.01475109      0.02241081     -0.00688423
    2
 MD step:         950 time   2.2979401101797499     
 H     -0.10363692      0.01647082     -0.41338705     -0.04439439      0.00685173     -0.00988917
 H     -0.03253605      0.05075170      0.37217464     -0.01486432      0.02240165     -0.00804533
    2
 MD step:        1000 time   2.4188843265050002     
 H     -0.10899914      0.01729062     -0.41452869     -0.04427513      0.00674318     -0.00887252
 H     -0.03434082      0.05346993      0.37114722     -0.01498358      0.02251020     -0.00906198
    2
 MD step:        1050 time   2.5398285428302501     
 H     -0.11434498      0.01811399     -0.41551120     -0.04412111      0.00685501     -0.00736927
 H     -0.03616199      0.05618458      0.36996065     -0.01513760      0.02239837     -0.01056523
    2
 MD step:        1100 time   2.6607727591554999     
 H     -0.11967060      0.01894424     -0.41630508     -0.04394639      0.00685856     -0.00576631
 H     -0.03800336      0.05889236      0.36858546     -0.01531232      0.02239482     -0.01216819
    2
 MD step:        1150 time   2.7817169754807503     
 H     -0.12497567      0.01977411     -0.41690919     -0.04378660      0.00688587     -0.00430158
 H     -0.03986529      0.06160052      0.36702049     -0.01547211      0.02236751     -0.01363292
    2
 MD step:        1200 time   2.9026611918060001     
 H     -0.13026301      0.02059989     -0.41737502     -0.04364915      0.00674628     -0.00339718
 H     -0.04174495      0.06431277      0.36531724     -0.01560956      0.02250710     -0.01453732
    2
 MD step:        1250 time   3.0236054081312500     
 H     -0.13553339      0.02142040     -0.41771280     -0.04349792      0.00683993     -0.00218010
 H     -0.04364157      0.06703029      0.36348595     -0.01576079      0.02241345     -0.01575440
    2
 MD step:        1300 time   3.1445496244565003     
 H     -0.14078326      0.02224872     -0.41789636     -0.04331113      0.00686647     -0.00077128
 H     -0.04555870      0.06973999      0.36150044     -0.01594758      0.02238691     -0.01716322
    2
 MD step:        1350 time   3.2654938407817502     
 H     -0.14600969      0.02308270     -0.41789496     -0.04311880      0.00693257      0.00077038
 H     -0.04749926      0.07244404      0.35932997     -0.01613991      0.02232081     -0.01870488
    2
 MD step:        1400 time   3.3864380571070001     
 H     -0.15121489      0.02391968     -0.41773908     -0.04296335      0.00684699      0.00170168
 H     -0.04946106      0.07514509      0.35700501     -0.01629536      0.02240639     -0.01963618
    2
 MD step:        1450 time   3.5073822734322500     
 H     -0.15640308      0.02474546     -0.41747927     -0.04283045      0.00686766      0.00259943
 H     -0.05143987      0.07785734      0.35457613     -0.01642826      0.02238572     -0.02053392
    2
 MD step:        1500 time   3.6283264897575003     
 H     -0.16157395      0.02557592     -0.41711505     -0.04267168      0.00686130      0.00350901
 H     -0.05343600      0.08056490      0.35204283     -0.01658703      0.02239208     -0.02144351
    2
 MD step:        1550 time   3.7492707060827501     
 H     -0.16672362      0.02641142     -0.41661181     -0.04248630      0.00695561      0.00480668
 H     -0.05545333      0.08326744      0.34937052     -0.01677241      0.02229777     -0.02274118
    2
 MD step:        1600 time   3.8702149224080000     
 H     -0.17185211      0.02725502     -0.41596857     -0.04233170      0.00693918      0.00568480
 H     -0.05749183      0.08596186      0.34655820     -0.01692701      0.02231421     -0.02361929
    2
 MD step:        1650 time   3.9911591387332503     
 H     -0.17696523      0.02808670     -0.41524695     -0.04222868      0.00687865      0.00624829
 H     -0.05954572      0.08866820      0.34366751     -0.01703003      0.02237473     -0.02418279
    2
 MD step:        1700 time   4.1121033550585002     
 H     -0.18206660      0.02891847     -0.41447021     -0.04212661      0.00684368      0.00661689
 H     -0.06161134      0.09137447      0.34072170     -0.01713210      0.02240971     -0.02455139
    2
 MD step:        1750 time   4.2330475713837501     
 H     -0.18715349      0.02974974     -0.41362114     -0.04199069      0.00691801      0.00744513
 H     -0.06369145      0.09408122      0.33770355     -0.01726802      0.02233538     -0.02537963
    2
 MD step:        1800 time   4.3539917877090000     
 H     -0.19222441      0.03058936     -0.41267762     -0.04187590      0.00692827      0.00803319
 H     -0.06578753      0.09677963      0.33459096     -0.01738281      0.02232511     -0.02596769
    2
 MD step:        1850 time   4.4749360040342498     
 H     -0.19728568      0.03141660     -0.41169895     -0.04183100      0.00679722      0.00815188
 H     -0.06789325      0.09949041      0.33144322     -0.01742771      0.02245616     -0.02608638
    2
 MD step:        1900 time   4.5958802203594997     
 H     -0.20234373      0.03223821     -0.41071935     -0.04180902      0.00674671      0.00801774
 H     -0.07000221      0.10220684      0.32829455     -0.01744969      0.02250667     -0.02595224
    2
 MD step:        1950 time   4.7168244366847505     
 H     -0.20739715      0.03305355     -0.40973595     -0.04175344      0.00676317      0.00829270
 H     -0.07211578      0.10492952      0.32514207     -0.01750527      0.02249021     -0.02622720
    2
 MD step:        2000 time   4.8377686530100004     
 H     -0.21244427      0.03387247     -0.40871945     -0.04172083      0.00675222      0.00840588
 H     -0.07423566      0.10764863      0.32195650     -0.01753788      0.02250117     -0.02634038
    2
 MD step:        2050 time   4.9587128693352502     
 H     -0.21749261      0.03467501     -0.40773088     -0.04177327      0.00654635      0.00794638
 H     -0.07635432      0.11038411      0.31879885     -0.01748544      0.02270703     -0.02588088
    2
 MD step:        2100 time   5.0796570856605001     
 H     -0.22254966      0.03546488     -0.40680339     -0.04184945      0.00648059      0.00735504
 H     -0.07846427      0.11313227      0.31570229     -0.01740926      0.02277280     -0.02528954
    2
 MD step:        2150 time   5.2006013019857500     
 H     -0.22761375      0.03624435     -0.40593170     -0.04189114      0.00642707      0.00710247
 H     -0.08056718      0.11589083      0.31266152     -0.01736757      0.02282631     -0.02503697
    2
 MD step:        2200 time   5.3215455183109999     
 H     -0.23268435      0.03701816     -0.40509258     -0.04197576      0.00635166      0.00665106
 H     -0.08266357      0.11865505      0.30965333     -0.01728295      0.02290172     -0.02458556
    2
 MD step:        2250 time   5.4424897346362506     
 H     -0.23777125      0.03776797     -0.40435461     -0.04215288      0.00606971      0.00558235
 H     -0.08474367      0.12144327      0.30674629     -0.01710583      0.02318368     -0.02351685
    2
 MD step:        2300 time   5.5634339509615005     
 H     -0.24288013      0.03849863     -0.40373427     -0.04232376      0.00599167      0.00466790
 H     -0.08680179      0.12425063      0.30395688     -0.01693495      0.02326172     -0.02260240
    2
 MD step:        2350 time   5.6843781672867504     
 H     -0.24800735      0.03921594     -0.40321189     -0.04246864      0.00585678      0.00395568
 H     -0.08884157      0.12707135      0.30126542     -0.01679007      0.02339660     -0.02189018
    2
 MD step:        2400 time   5.8053223836120003     
 H     -0.25315590      0.03991403     -0.40278784     -0.04269041      0.00568649      0.00292804
 H     -0.09086002      0.12991129      0.29867230     -0.01656830      0.02356689     -0.02086254
    2
 MD step:        2450 time   5.9262665999372501     
 H     -0.25833645      0.04058073     -0.40252864     -0.04297630      0.00536898      0.00145063
 H     -0.09284646      0.13278261      0.29624402     -0.01628241      0.02388441     -0.01938513
    2
 MD step:        2500 time   6.0472108162625000     
 H     -0.26354870      0.04122542     -0.40241541     -0.04320942      0.00527809      0.00043642
 H     -0.09480121      0.13567596      0.29396171     -0.01604930      0.02397529     -0.01837092
    2
 MD step:        2550 time   6.1681550325877499     
 H     -0.26878870      0.04185228     -0.40242553     -0.04345867      0.00503698     -0.00069943
 H     -0.09672822      0.13858712      0.29180277     -0.01580004      0.02421640     -0.01723507
    2
 MD step:        2600 time   6.2890992489130007     
 H     -0.27406438      0.04244517     -0.40259206     -0.04379382      0.00479477     -0.00212861
 H     -0.09861953      0.14153225      0.28980022     -0.01546489      0.02445861     -0.01580589
    2
 MD step:        2650 time   6.4100434652382505     
 H     -0.27938135      0.04300618     -0.40294685     -0.04411466      0.00451695     -0.00359073
 H     -0.10046956      0.14450927      0.28798593     -0.01514405      0.02473643     -0.01434377
    2
 MD step:        2700 time   6.5309876815635004     
 H     -0.28473248      0.04354491     -0.40344052     -0.04437490      0.00438166     -0.00457029
 H     -0.10228543      0.14750857      0.28631053     -0.01488381      0.02487172     -0.01336421
    2
 MD step:        2750 time   6.6519318978887503     
 H     -0.29011843      0.04405849     -0.40407454     -0.04470688      0.00404544     -0.00602815
 H     -0.10406648      0.15053302      0.28477548     -0.01455183      0.02520794     -0.01190635
    2
 MD step:        2800 time   6.7728761142140002     
 H     -0.29554759      0.04453071     -0.40488985     -0.04506342      0.00381523     -0.00742717
 H     -0.10580432      0.15359882      0.28342171     -0.01419529      0.02543815     -0.01050733
    2
 MD step:        2850 time   6.8938203305392500     
 H     -0.30101525      0.04497909     -0.40586198     -0.04533496      0.00361486     -0.00853217
 H     -0.10750365      0.15668847      0.28222477     -0.01392375      0.02563852     -0.00940233
    2
 MD step:        2900 time   7.0147645468644999     
 H     -0.30651348      0.04540360     -0.40694912     -0.04559603      0.00340810     -0.00945833
 H     -0.10917242      0.15980200      0.28114284     -0.01366268      0.02584529     -0.00847617
    2
 MD step:        2950 time   7.1357087631897507     
 H     -0.31204808      0.04579848     -0.40817646     -0.04593038      0.00306776     -0.01089697
 H     -0.11080482      0.16294514      0.28020110     -0.01332833      0.02618563     -0.00703753
    2
 MD step:        3000 time   7.2566529795150005     
 H     -0.31762044      0.04615699     -0.40955735     -0.04619515      0.00291566     -0.01184949
 H     -0.11239945      0.16612466      0.27941291     -0.01306356      0.02633772     -0.00608501
    2
 MD step:        3050 time   7.3775971958402504     
 H     -0.32321831      0.04650248     -0.41103165     -0.04636735      0.00278486     -0.01250652
 H     -0.11396859      0.16931720      0.27871815     -0.01289137      0.02646852     -0.00542798
    2
 MD step:        3100 time   7.4985414121655003     
 H     -0.32883823      0.04682325     -0.41259050     -0.04657760      0.00254293     -0.01326638
 H     -0.11551567      0.17253446      0.27810792     -0.01268111      0.02671045     -0.00466812
    2
 MD step:        3150 time   7.6194856284907502     
 H     -0.33448616      0.04711853     -0.41425654     -0.04680898      0.00229974     -0.01429383
 H     -0.11703474      0.17577720      0.27760489     -0.01244973      0.02695364     -0.00364067
    2
 MD step:        3200 time   7.7404298448160000     
 H     -0.34015515      0.04739008     -0.41601312     -0.04691343      0.00223743     -0.01465545
 H     -0.11853274      0.17904367      0.27719239     -0.01234528      0.02701595     -0.00327905
    2
 MD step:        3250 time   7.8613740611412499     
 H     -0.34583117      0.04765906     -0.41779439     -0.04695088      0.00218532     -0.01484128
 H     -0.12002372      0.18231272      0.27680458     -0.01230783      0.02706806     -0.00309322
    2
 MD step:        3300 time   7.9823182774665007     
 H     -0.35151465      0.04790846     -0.41961664     -0.04704201      0.00197093     -0.01525712
 H     -0.12150723      0.18560135      0.27645776     -0.01221670      0.02728245     -0.00267738
    2
 MD step:        3350 time   8.1032624937917497     
 H     -0.35720922      0.04814254     -0.42148910     -0.04710887      0.00186660     -0.01570923
 H     -0.12297966      0.18890530      0.27616115     -0.01214984      0.02738679     -0.00222527
    2
 MD step:        3400 time   8.2242067101170004     
 H     -0.36290347      0.04836711     -0.42338409     -0.04703176      0.00189085     -0.01552494
 H     -0.12445241      0.19221876      0.27588707     -0.01222695      0.02736253     -0.00240956
    2
 MD step:        3450 time   8.3451509264422494     
 H     -0.36858347      0.04860045     -0.42523862     -0.04690045      0.00194783     -0.01519370
 H     -0.12593941      0.19552345      0.27557253     -0.01235826      0.02730555     -0.00274080
    2
 MD step:        3500 time   8.4660951427675002     
 H     -0.37425091      0.04882623     -0.42707729     -0.04682602      0.00180290     -0.01517244
 H     -0.12743897      0.19883570      0.27524212     -0.01243269      0.02745048     -0.00276206
    2
 MD step:        3550 time   8.5870393590927510     
 H     -0.37990915      0.04904738     -0.42890615     -0.04672255      0.00182941     -0.01509253
 H     -0.12894773      0.20215257      0.27490190     -0.01253616      0.02742397     -0.00284197
    2
 MD step:        3600 time   8.7079835754179999     
 H     -0.38554660      0.04927157     -0.43070271     -0.04647564      0.00193078     -0.01448931
 H     -0.13047728      0.20546641      0.27452939     -0.01278307      0.02732261     -0.00344519
    2
 MD step:        3650 time   8.8289277917432507     
 H     -0.39114843      0.04951688     -0.43240279     -0.04615938      0.00211705     -0.01364715
 H     -0.13204245      0.20875912      0.27406040     -0.01309933      0.02713633     -0.00428734
    2
 MD step:        3700 time   8.9498720080684997     
 H     -0.39671493      0.04977171     -0.43402446     -0.04590010      0.00207824     -0.01316696
 H     -0.13364294      0.21204232      0.27351300     -0.01335861      0.02717514     -0.00476754
    2
 MD step:        3750 time   9.0708162243937505     
 H     -0.40225204      0.05003079     -0.43558378     -0.04565101      0.00220234     -0.01266574
 H     -0.13527283      0.21532127      0.27290324     -0.01360770      0.02705104     -0.00526876
    2
 MD step:        3800 time   9.1917604407189994     
 H     -0.40775254      0.05030177     -0.43707587     -0.04528010      0.00233875     -0.01185253
 H     -0.13693933      0.21858832      0.27222625     -0.01397861      0.02691463     -0.00608197
    2
 MD step:        3850 time   9.3127046570442502     
 H     -0.41320042      0.05060374     -0.43843558     -0.04480143      0.00264936     -0.01062616
 H     -0.13865845      0.22182437      0.27141689     -0.01445728      0.02660402     -0.00730834
    2
 MD step:        3900 time   9.4336488733695010     
 H     -0.41859111      0.05093431     -0.43966007     -0.04435473      0.00276809     -0.00967384
 H     -0.14043476      0.22503183      0.27047231     -0.01490398      0.02648529     -0.00826066
    2
 MD step:        3950 time   9.5545930896947500     
 H     -0.42393235      0.05127901     -0.44077427     -0.04397620      0.00295476     -0.00881527
 H     -0.14226051      0.22822515      0.26941743     -0.01528251      0.02629862     -0.00911923
    2
 MD step:        4000 time   9.6755373060200007     
 H     -0.42922586      0.05164154     -0.44179910     -0.04354250      0.00307001     -0.00801097
 H     -0.14413400      0.23140066      0.26827319     -0.01571621      0.02618338     -0.00992353
    2
 MD step:        4050 time   9.7964815223452497     
 H     -0.43445880      0.05203624     -0.44268632     -0.04297688      0.00345904     -0.00664804
 H     -0.14606806      0.23454399      0.26699134     -0.01628183      0.02579434     -0.01128646
    2
 MD step:        4100 time   9.9174257386705005     
 H     -0.43961976      0.05247428     -0.44340704     -0.04237604      0.00374752     -0.00531253
 H     -0.14807409      0.23764397      0.26554298     -0.01688267      0.02550586     -0.01262197
    2
 MD step:        4150 time   10.038369954995749     
 H     -0.44471232      0.05294090     -0.44397396     -0.04185788      0.00399713     -0.00410780
 H     -0.15014854      0.24071538      0.26394083     -0.01740083      0.02525625     -0.01382670
    2
 MD step:        4200 time   10.159314171321000     
 H     -0.44974667      0.05343287     -0.44442499     -0.04138909      0.00410548     -0.00333855
 H     -0.15228119      0.24376143      0.26222279     -0.01786962      0.02514790     -0.01459595
    2
 MD step:        4250 time   10.280258387646251     
 H     -0.45472048      0.05394887     -0.44475611     -0.04083678      0.00447089     -0.00209932
 H     -0.15447437      0.24678346      0.26038483     -0.01842193      0.02478250     -0.01583518
    2
 MD step:        4300 time   10.401202603971500     
 H     -0.45962070      0.05451156     -0.44492911     -0.04018442      0.00483215     -0.00071569
 H     -0.15674115      0.24975880      0.25838875     -0.01907429      0.02442123     -0.01721880
    2
 MD step:        4350 time   10.522146820296751     
 H     -0.46444169      0.05511585     -0.44492801     -0.03955205      0.00516990      0.00072413
 H     -0.15908716      0.25269254      0.25621858     -0.01970667      0.02408348     -0.01865863
    2
 MD step:        4400 time   10.643091036622000     
 H     -0.46919339      0.05575657     -0.44477994     -0.03903761      0.00535327      0.00161830
 H     -0.16150246      0.25558984      0.25390144     -0.02022110      0.02390011     -0.01955280
    2
 MD step:        4450 time   10.764035252947250     
 H     -0.47388583      0.05641423     -0.44452719     -0.03855038      0.00559879      0.00261457
 H     -0.16397702      0.25847021      0.25147961     -0.02070833      0.02365459     -0.02054907
    2
 MD step:        4500 time   10.884979469272501     
 H     -0.47851433      0.05711066     -0.44414986     -0.03797296      0.00590792      0.00368036
 H     -0.16651552      0.26131181      0.24893322     -0.02128575      0.02334547     -0.02161486
    2
 MD step:        4550 time   11.005923685597750     
 H     -0.48306800      0.05784860     -0.44362026     -0.03733219      0.00629768      0.00508216
 H     -0.16912885      0.26411190      0.24623454     -0.02192653      0.02295570     -0.02301665
    2
 MD step:        4600 time   11.126867901923001     
 H     -0.48754831      0.05863115     -0.44293348     -0.03678488      0.00658003      0.00613258
 H     -0.17181553      0.26686738      0.24337869     -0.02247383      0.02267335     -0.02406708
    2
 MD step:        4650 time   11.247812118248250     
 H     -0.49197048      0.05943121     -0.44214718     -0.03635799      0.00670530      0.00690780
 H     -0.17456036      0.26960534      0.24042331     -0.02290072      0.02254808     -0.02484230
    2
 MD step:        4700 time   11.368756334573501     
 H     -0.49634223      0.06025748     -0.44127105     -0.03592594      0.00692050      0.00756324
 H     -0.17735561      0.27231710      0.23737810     -0.02333277      0.02233289     -0.02549773
    2
 MD step:        4750 time   11.489700550898750     
 H     -0.50065642      0.06111203     -0.44029507     -0.03540393      0.00724548      0.00862926
 H     -0.18020842      0.27500058      0.23423305     -0.02385478      0.02200790     -0.02656375
    2
 MD step:        4800 time   11.610644767224001     
 H     -0.50490702      0.06200882     -0.43918729     -0.03490751      0.00755010      0.00960492
 H     -0.18312481      0.27764181      0.23095619     -0.02435120      0.02170328     -0.02753941
    2
 MD step:        4850 time   11.731588983549251     
 H     -0.50910687      0.06292405     -0.43799391     -0.03456715      0.00759187      0.01013788
 H     -0.18609197      0.28026461      0.22759374     -0.02469156      0.02166151     -0.02807238
    2
 MD step:        4900 time   11.852533199874500     
 H     -0.51327214      0.06385176     -0.43674509     -0.03430987      0.00770921      0.01043432
 H     -0.18909370      0.28287493      0.22417585     -0.02494884      0.02154417     -0.02836882
    2
 MD step:        4950 time   11.973477416199751     
 H     -0.51740347      0.06479032     -0.43545549     -0.03398782      0.00787335      0.01099523
 H     -0.19212936      0.28547440      0.22071718     -0.02527089      0.02138003     -0.02892972
    2
 MD step:        5000 time   12.094421632525000     
 H     -0.52149275      0.06575776     -0.43408388     -0.03364625      0.00810461      0.01164831
 H     -0.19520708      0.28804499      0.21717649     -0.02561246      0.02114878     -0.02958281
    2
 MD step:        5050 time   12.215365848850251     
 H     -0.52554943      0.06673651     -0.43266242     -0.03346568      0.00804749      0.01182483
 H     -0.19831740      0.29060426      0.21358596     -0.02579303      0.02120590     -0.02975933
    2
 MD step:        5100 time   12.336310065175500     
 H     -0.52959348      0.06771075     -0.43123060     -0.03341466      0.00804170      0.01175571
 H     -0.20144035      0.29316805      0.20998507     -0.02584405      0.02121168     -0.02969021
    2
 MD step:        5150 time   12.457254281500751     
 H     -0.53363056      0.06867860     -0.42981390     -0.03332387      0.00802514      0.01179338
 H     -0.20457026      0.29573823      0.20639929     -0.02593484      0.02122824     -0.02972788
    2
 MD step:        5200 time   12.578198497826001     
 H     -0.53765307      0.06965565     -0.42837264     -0.03320569      0.00811530      0.01201298
 H     -0.20771475      0.29829920      0.20278895     -0.02605302      0.02113808     -0.02994748
    2
 MD step:        5250 time   12.699142714151250     
 H     -0.54167061      0.07062773     -0.42693444     -0.03326336      0.00790104      0.01170143
 H     -0.21086421      0.30086516      0.19918168     -0.02599535      0.02135235     -0.02963593
    2
 MD step:        5300 time   12.820086930476501     
 H     -0.54570468      0.07157326     -0.42554392     -0.03345020      0.00774065      0.01122267
 H     -0.21399714      0.30345765      0.19562209     -0.02580851      0.02151274     -0.02915717
    2
 MD step:        5350 time   12.941031146801750     
 H     -0.54975985      0.07249636     -0.42421786     -0.03358734      0.00757128      0.01082056
 H     -0.21710896      0.30607257      0.19212695     -0.02567137      0.02168210     -0.02875505
    2
 MD step:        5400 time   13.061975363127001     
 H     -0.55382925      0.07340674     -0.42292179     -0.03372500      0.00746867      0.01058029
 H     -0.22020656      0.30870022      0.18866181     -0.02553371      0.02178471     -0.02851479
    2
 MD step:        5450 time   13.182919579452250     
 H     -0.55792687      0.07428891     -0.42168960     -0.03406633      0.00705146      0.00971485
 H     -0.22327595      0.31135608      0.18526055     -0.02519238      0.02220193     -0.02764935
    2
 MD step:        5500 time   13.303863795777501     
 H     -0.56207229      0.07512142     -0.42056416     -0.03447465      0.00674852      0.00888147
 H     -0.22629752      0.31406160      0.18196604     -0.02478406      0.02250486     -0.02681597
    2
 MD step:        5550 time   13.424808012102751     
 H     -0.56626253      0.07591938     -0.41953663     -0.03480280      0.00646659      0.00818390
 H     -0.22927427      0.31680167      0.17876943     -0.02445591      0.02278679     -0.02611840
    2
 MD step:        5600 time   13.545752228428000     
 H     -0.57049433      0.07668138     -0.41858754     -0.03520628      0.00612629      0.00747243
 H     -0.23220948      0.31957770      0.17565126     -0.02405243      0.02312710     -0.02540693
    2
 MD step:        5650 time   13.666696444753251     
 H     -0.57478730      0.07738981     -0.41776079     -0.03579832      0.00553609      0.00615189
 H     -0.23508350      0.32240730      0.17265545     -0.02346039      0.02371729     -0.02408638
    2
 MD step:        5700 time   13.787640661078500     
 H     -0.57915056      0.07803420     -0.41707772     -0.03633247      0.00516192      0.00517763
 H     -0.23788725      0.32530093      0.16980330     -0.02292624      0.02409147     -0.02311213
    2
 MD step:        5750 time   13.908584877403751     
 H     -0.58357289      0.07863688     -0.41650381     -0.03680683      0.00477811      0.00428996
 H     -0.24063191      0.32823627      0.16706032     -0.02245188      0.02447528     -0.02222446
    2
 MD step:        5800 time   14.029529093729000     
 H     -0.58806077      0.07917942     -0.41605210     -0.03743664      0.00421209      0.00316302