    2
 MD step:           0 time   0.0000000000000000     
 H      0.00000000      0.00000000     -0.37000000     -0.00750154     -0.02485647      0.01163910
 H      0.00000000      0.00000000      0.37000000     -0.03905193     -0.00370077     -0.01267262
    2
 MD step:          50 time  0.12094421632525000     
 H     -0.00090725     -0.00300626     -0.36860194     -0.00750102     -0.02485682      0.01145554
 H     -0.00472312     -0.00044757      0.36847694     -0.03905246     -0.00370042     -0.01248906
    2
 MD step:         100 time  0.24188843265050000     
 H     -0.00181433     -0.00601263     -0.36723526     -0.00749851     -0.02485851      0.01112026
 H     -0.00944642     -0.00089503      0.36698526     -0.03905497     -0.00369873     -0.01215378
    2
 MD step:         150 time  0.36283264897575002     
 H     -0.00272092     -0.00901933     -0.36591733     -0.00749275     -0.02486236      0.01064898
 H     -0.01417020     -0.00134217      0.36554233     -0.03906072     -0.00369488     -0.01168250
    2
 MD step:         200 time  0.48377686530100000     
 H     -0.00362655     -0.01202668     -0.36466576     -0.00748233     -0.02486935      0.01002828
 H     -0.01889495     -0.00178865      0.36416576     -0.03907115     -0.00368789     -0.01106180
    2
 MD step:         250 time  0.60472108162625005     
 H     -0.00453059     -0.01503508     -0.36349506     -0.00746641     -0.02488003      0.00931317
 H     -0.02362128     -0.00223408      0.36287007     -0.03908707     -0.00367721     -0.01034669
    2
 MD step:         300 time  0.72566529795150003     
 H     -0.00543231     -0.01804505     -0.36241733     -0.00744370     -0.02489526      0.00849749
 H     -0.02834994     -0.00267794      0.36166734     -0.03910978     -0.00366198     -0.00953102
    2
 MD step:         350 time  0.84660951427675002     
 H     -0.00633085     -0.02105715     -0.36144197     -0.00741376     -0.02491533      0.00761844
 H     -0.03308177     -0.00311968      0.36056698     -0.03913972     -0.00364191     -0.00865196
    2
 MD step:         400 time  0.96755373060200001     
 H     -0.00722528     -0.02407201     -0.36057778     -0.00737564     -0.02494089      0.00665923
 H     -0.03781771     -0.00355866      0.35957779     -0.03917784     -0.00361635     -0.00769275
    2
 MD step:         450 time   1.0884979469272500     
 H     -0.00811459     -0.02709030     -0.35983440     -0.00732904     -0.02497214      0.00562177
 H     -0.04255878     -0.00399420      0.35870942     -0.03922444     -0.00358510     -0.00665529
    2
 MD step:         500 time   1.2094421632525001     
 H     -0.00899774     -0.03011272     -0.35922105     -0.00727361     -0.02500930      0.00450455
 H     -0.04730600     -0.00442561      0.35797106     -0.03927987     -0.00354793     -0.00553808
    2
 MD step:         550 time   1.3303863795777500     
 H     -0.00987364     -0.03313999     -0.35874764     -0.00720951     -0.02505229      0.00332019
 H     -0.05206048     -0.00485217      0.35737265     -0.03934397     -0.00350495     -0.00435371
    2
 MD step:         600 time   1.4513305959030001     
 H     -0.01074131     -0.03617279     -0.35841938     -0.00713726     -0.02510073      0.00209933
 H     -0.05682318     -0.00527320      0.35691939     -0.03941622     -0.00345651     -0.00313286
    2
 MD step:         650 time   1.5722748122282502     
 H     -0.01159977     -0.03921176     -0.35823982     -0.00705782     -0.02515400      0.00087710
 H     -0.06159509     -0.00568806      0.35661484     -0.03949566     -0.00340324     -0.00191062
    2
 MD step:         700 time   1.6932190285535000     
 H     -0.01244826     -0.04225742     -0.35820637     -0.00697231     -0.02521134     -0.00032144
 H     -0.06637697     -0.00609624      0.35645639     -0.03958117     -0.00334590     -0.00071208
    2
 MD step:         750 time   1.8141632448787501     
 H     -0.01328610     -0.04531022     -0.35831583     -0.00688204     -0.02527187     -0.00148025
 H     -0.07116951     -0.00649727      0.35644085     -0.03967144     -0.00328537      0.00044673
    2
 MD step:         800 time   1.9351074612040000     
 H     -0.01411282     -0.04837048     -0.35856279     -0.00678857     -0.02533454     -0.00259725
 H     -0.07597316     -0.00689085      0.35656281     -0.03976491     -0.00322270      0.00156373
    2
 MD step:         850 time   2.0560516775292501     
 H     -0.01492809     -0.05143842     -0.35894296     -0.00669293     -0.02539867     -0.00368413
 H     -0.08078827     -0.00727674      0.35681798     -0.03986055     -0.00315857      0.00265060
    2
 MD step:         900 time   2.1769958938545000     
 H     -0.01573179     -0.05451411     -0.35945160     -0.00659777     -0.02546248     -0.00471791
 H     -0.08561494     -0.00765489      0.35720163     -0.03995571     -0.00309476      0.00368439
    2
 MD step:         950 time   2.2979401101797499     
 H     -0.01652405     -0.05759747     -0.36008266     -0.00650392     -0.02552541     -0.00570584
 H     -0.09045306     -0.00802535      0.35770769     -0.04004956     -0.00303183      0.00467231
    2
 MD step:        1000 time   2.4188843265050002     
 H     -0.01730524     -0.06068826     -0.36082717     -0.00641525     -0.02558487     -0.00658865
 H     -0.09530224     -0.00838840      0.35832720     -0.04013823     -0.00297237      0.00555513
    2
 MD step:        1050 time   2.5398285428302501     
 H     -0.01807605     -0.06378600     -0.36167260     -0.00633257     -0.02564030     -0.00736995
 H     -0.10016181     -0.00874449      0.35904763     -0.04022090     -0.00291693      0.00633643
    2
 MD step:        1100 time   2.6607727591554999     
 H     -0.01883742     -0.06689008     -0.36260386     -0.00625959     -0.02568925     -0.00800821
 H     -0.10503081     -0.00909425      0.35985389     -0.04029389     -0.00286799      0.00697469
    2
 MD step:        1150 time   2.7817169754807503     
 H     -0.01959059     -0.06999966     -0.36360480     -0.00619711     -0.02573114     -0.00852311
 H     -0.10990801     -0.00943850      0.36072983     -0.04035637     -0.00282610      0.00748959
    2
 MD step:        1200 time   2.9026611918060001     
 H     -0.02033694     -0.07311380     -0.36466077     -0.00614732     -0.02576452     -0.00891965
 H     -0.11479203     -0.00977819      0.36166080     -0.04040616     -0.00279272      0.00788612
    2
 MD step:        1250 time   3.0236054081312500     
 H     -0.02107813     -0.07623141     -0.36575783     -0.00611173     -0.02578839     -0.00920737
 H     -0.11968122     -0.01011442      0.36263287     -0.04044175     -0.00276885      0.00817385
    2
 MD step:        1300 time   3.1445496244565003     
 H     -0.02181589     -0.07935132     -0.36688435     -0.00609115     -0.02580219     -0.00940052
 H     -0.12457383     -0.01044834      0.36363438     -0.04046233     -0.00275505      0.00836699
    2
 MD step:        1350 time   3.2654938407817502     
 H     -0.02255224     -0.08247217     -0.36802641     -0.00608837     -0.02580406     -0.00946803
 H     -0.12946785     -0.01078132      0.36465144     -0.04046511     -0.00275318      0.00843451
    2
 MD step:        1400 time   3.3864380571070001     
 H     -0.02328930     -0.08559255     -0.36916995     -0.00610333     -0.02579402     -0.00941589
 H     -0.13436118     -0.01111477      0.36566999     -0.04045015     -0.00276322      0.00838236
    2
 MD step:        1450 time   3.5073822734322500     
 H     -0.02402942     -0.08871087     -0.37029751     -0.00613907     -0.02577006     -0.00920787
 H     -0.13925142     -0.01145029      0.36667255     -0.04041441     -0.00278718      0.00817434
    2
 MD step:        1500 time   3.6283264897575003     
 H     -0.02477506     -0.09182550     -0.37139199     -0.00619466     -0.02573278     -0.00886789
 H     -0.14413616     -0.01178949      0.36764203     -0.04035882     -0.00282446      0.00783437
    2
 MD step:        1550 time   3.7492707060827501     
 H     -0.02552870     -0.09493476     -0.37243738     -0.00627151     -0.02568125     -0.00840037
 H     -0.14901289     -0.01213407      0.36856242     -0.04028196     -0.00287599      0.00736685
    2
 MD step:        1600 time   3.8702149224080000     
 H     -0.02629290     -0.09803694     -0.37341988     -0.00636893     -0.02561593     -0.00783379
 H     -0.15387907     -0.01248572      0.36941992     -0.04018455     -0.00294131      0.00680027
    2
 MD step:        1650 time   3.9911591387332503     
 H     -0.02707006     -0.10113043     -0.37432955     -0.00648611     -0.02553735     -0.00719479
 H     -0.15873229     -0.01284606      0.37020459     -0.04006736     -0.00301989      0.00616127
    2
 MD step:        1700 time   4.1121033550585002     
 H     -0.02786268     -0.10421354     -0.37515648     -0.00662434     -0.02544467     -0.00646852
 H     -0.16357004     -0.01321678      0.37090652     -0.03992914     -0.00311257      0.00543500
    2
 MD step:        1750 time   4.2330475713837501     
 H     -0.02867314     -0.10728471     -0.37589175     -0.00678122     -0.02533947     -0.00567442
 H     -0.16838995     -0.01359945      0.37151679     -0.03977226     -0.00321777      0.00464090
    2
 MD step:        1800 time   4.3539917877090000     
 H     -0.02950385     -0.11034228     -0.37652437     -0.00695922     -0.02522012     -0.00477096
 H     -0.17318961     -0.01399570      0.37202442     -0.03959426     -0.00333712      0.00373743
    2
 MD step:        1850 time   4.4749360040342498     
 H     -0.03035720     -0.11338468     -0.37704261     -0.00715531     -0.02508863     -0.00378425
 H     -0.17796663     -0.01440714      0.37241766     -0.03939817     -0.00346861      0.00275072
    2
 MD step:        1900 time   4.5958802203594997     
 H     -0.03123539     -0.11641043     -0.37743612     -0.00736990     -0.02494474     -0.00271091
 H     -0.18271882     -0.01483523      0.37268617     -0.03918358     -0.00361250      0.00167738
    2
 MD step:        1950 time   4.7168244366847505     
 H     -0.03214056     -0.11941808     -0.37769614     -0.00760102     -0.02478977     -0.00158220
 H     -0.18744402     -0.01528141      0.37282119     -0.03895246     -0.00376747      0.00054868
    2
 MD step:        2000 time   4.8377686530100004     
 H     -0.03307453     -0.12240642     -0.37781813     -0.00784580     -0.02462563     -0.00043365
 H     -0.19214043     -0.01574690      0.37281818     -0.03870768     -0.00393161     -0.00059987
    2
 MD step:        2050 time   4.9587128693352502     
 H     -0.03403894     -0.12537435     -0.37780006     -0.00810445     -0.02445220      0.00073652
 H     -0.19680639     -0.01623280      0.37267512     -0.03844903     -0.00410504     -0.00177004
    2
 MD step:        2100 time   5.0796570856605001     
 H     -0.03503530     -0.12832086     -0.37764010     -0.00837327     -0.02427194      0.00190727
 H     -0.20144041     -0.01674012      0.37239016     -0.03818021     -0.00428530     -0.00294079
    2
 MD step:        2150 time   5.2006013019857500     
 H     -0.03606477     -0.13124516     -0.37733755     -0.00865263     -0.02408462      0.00310432
 H     -0.20604131     -0.01726965      0.37196260     -0.03790085     -0.00447262     -0.00413784
    2
 MD step:        2200 time   5.3215455183109999     
 H     -0.03712860     -0.13414643     -0.37688823     -0.00894034     -0.02389170      0.00432687
 H     -0.21060785     -0.01782222      0.37138829     -0.03761314     -0.00466554     -0.00536039
    2
 MD step:        2250 time   5.4424897346362506     
 H     -0.03822757     -0.13702413     -0.37629014     -0.00923392     -0.02369485      0.00556759
 H     -0.21513925     -0.01839835      0.37066520     -0.03731956     -0.00486239     -0.00660111
    2
 MD step:        2300 time   5.5634339509615005     
 H     -0.03936237     -0.13987781     -0.37554132     -0.00953204     -0.02349494      0.00681284
 H     -0.21963484     -0.01899850      0.36979138     -0.03702144     -0.00506230     -0.00784636
    2
 MD step:        2350 time   5.6843781672867504     
 H     -0.04053328     -0.14270728     -0.37464338     -0.00983055     -0.02329479      0.00802745
 H     -0.22409429     -0.01962287      0.36876844     -0.03672293     -0.00526245     -0.00906098
    2
 MD step:        2400 time   5.8053223836120003     
 H     -0.04174017     -0.14551262     -0.37360189     -0.01012694     -0.02309604      0.00918776
 H     -0.22851778     -0.02027137      0.36760195     -0.03642654     -0.00546119     -0.01022128
    2
 MD step:        2450 time   5.9262665999372501     
 H     -0.04298274     -0.14829403     -0.37242294     -0.01041952     -0.02289986      0.01029528
 H     -0.23290559     -0.02094378      0.36629800     -0.03613396     -0.00565738     -0.01132880
    2
 MD step:        2500 time   6.0472108162625000     
 H     -0.04426017     -0.15105207     -0.37111460     -0.01070369     -0.02270931      0.01133349
 H     -0.23725853     -0.02163958      0.36486467     -0.03584978     -0.00584793     -0.01236701
    2
 MD step:        2550 time   6.1681550325877499     
 H     -0.04557157     -0.15378733     -0.36968251     -0.01098055     -0.02252366      0.01234038
 H     -0.24157750     -0.02235815      0.36330758     -0.03557292     -0.00603358     -0.01337390
    2
 MD step:        2600 time   6.2890992489130007     
 H     -0.04691569     -0.15650065     -0.36813202     -0.01124433     -0.02234679      0.01329178
 H     -0.24586376     -0.02309866      0.36163209     -0.03530915     -0.00621045     -0.01432530
    2
 MD step:        2650 time   6.4100434652382505     
 H     -0.04829091     -0.15919311     -0.36646908     -0.01149462     -0.02217896      0.01419728
 H     -0.25011891     -0.02386003      0.35984415     -0.03505886     -0.00637828     -0.01523081
    2
 MD step:        2700 time   6.5309876815635004     
 H     -0.04969538     -0.16186597     -0.36470103     -0.01172699     -0.02202315      0.01502498
 H     -0.25434481     -0.02464101      0.35795110     -0.03482649     -0.00653409     -0.01605850
    2
 MD step:        2750 time   6.6519318978887503     
 H     -0.05112663     -0.16452087     -0.36283915     -0.01193717     -0.02188222      0.01574478
 H     -0.25854394     -0.02543995      0.35596422     -0.03461631     -0.00667502     -0.01677830
    2
 MD step:        2800 time   6.7728761142140002     
 H     -0.05258193     -0.16715964     -0.36089673     -0.01212426     -0.02175676      0.01635752
 H     -0.26271901     -0.02625501      0.35389680     -0.03442922     -0.00680048     -0.01739105
    2
 MD step:        2850 time   6.8938203305392500     
 H     -0.05405815     -0.16978438     -0.35888800     -0.01228225     -0.02165083      0.01683859
 H     -0.26687317     -0.02708410      0.35176308     -0.03427122     -0.00690641     -0.01787211
    2
 MD step:        2900 time   7.0147645468644999     
 H     -0.05555178     -0.17239745     -0.35682722     -0.01241265     -0.02156339      0.01722568
 H     -0.27100991     -0.02792486      0.34957730     -0.03414083     -0.00699385     -0.01825920
    2
 MD step:        2950 time   7.1357087631897507     
 H     -0.05705928     -0.17500122     -0.35472579     -0.01251030     -0.02149792      0.01750689
 H     -0.27513279     -0.02877492      0.34735087     -0.03404318     -0.00705932     -0.01854041
    2
 MD step:        3000 time   7.2566529795150005     
 H     -0.05857658     -0.17759842     -0.35259578     -0.01257528     -0.02145434      0.01770191
 H     -0.27924585     -0.02963156      0.34509586     -0.03397820     -0.00710290     -0.01873543
    2
 MD step:        3050 time   7.3775971958402504     
 H     -0.06009963     -0.18019176     -0.35044825     -0.01260437     -0.02143483      0.01779155
 H     -0.28335318     -0.03049205      0.34282333     -0.03394911     -0.00712241     -0.01882508
    2
 MD step:        3100 time   7.4985414121655003     
 H     -0.06162386     -0.18278431     -0.34829727     -0.01259447     -0.02144148      0.01775575
 H     -0.28745933     -0.03135333      0.34054735     -0.03395901     -0.00711576     -0.01878928
    2
 MD step:        3150 time   7.6194856284907502     
 H     -0.06314453     -0.18537925     -0.34615848     -0.01254553     -0.02147429      0.01759064
 H     -0.29156903     -0.03221223      0.33828357     -0.03400795     -0.00708295     -0.01862416
    2
 MD step:        3200 time   7.7404298448160000     
 H     -0.06465670     -0.18797988     -0.34404855     -0.01245328     -0.02153615      0.01727553
 H     -0.29568723     -0.03306543      0.33604863     -0.03410020     -0.00702109     -0.01830905
    2
 MD step:        3250 time   7.8613740611412499     
 H     -0.06615527     -0.19058964     -0.34198404     -0.01232141     -0.02162457      0.01684760
 H     -0.29981903     -0.03390950      0.33385912     -0.03423207     -0.00693267     -0.01788112
    2
 MD step:        3300 time   7.9823182774665007     
 H     -0.06763534     -0.19321181     -0.33997834     -0.01214668     -0.02174174      0.01630211
 H     -0.30396934     -0.03474117      0.33172842     -0.03440680     -0.00681550     -0.01733563
    2
 MD step:        3350 time   8.1032624937917497     
 H     -0.06909192     -0.19584971     -0.33804349     -0.01193401     -0.02188433      0.01568164
 H     -0.30814313     -0.03555710      0.32966857     -0.03461947     -0.00667291     -0.01671516
    2
 MD step:        3400 time   8.2242067101170004     
 H     -0.07052042     -0.19850646     -0.33618877     -0.01168194     -0.02205336      0.01497520
 H     -0.31234501     -0.03635419      0.32768886     -0.03487154     -0.00650388     -0.01600872
    2
 MD step:        3450 time   8.3451509264422494     
 H     -0.07191618     -0.20118515     -0.33442431     -0.01139334     -0.02224687      0.01418901
 H     -0.31657962     -0.03712933      0.32579940     -0.03516013     -0.00631037     -0.01522254
    2
 MD step:        3500 time   8.4660951427675002     
 H     -0.07327496     -0.20388864     -0.33275998     -0.01107022     -0.02246354      0.01331746
 H     -0.32085122     -0.03787967      0.32401007     -0.03548326     -0.00609370     -0.01435098
    2
 MD step:        3550 time   8.5870393590927510     
 H     -0.07459256     -0.20661974     -0.33120703     -0.01071362     -0.02270265      0.01235073
 H     -0.32516399     -0.03860240      0.32233212     -0.03583985     -0.00585459     -0.01338426
    2
 MD step:        3600 time   8.7079835754179999     
 H     -0.07586544     -0.20938084     -0.32977470     -0.01033058     -0.02295950      0.01132239
 H     -0.32952149     -0.03929514      0.32077479     -0.03622290     -0.00559774     -0.01235591
    2
 MD step:        3650 time   8.8289277917432507     
 H     -0.07709036     -0.21217409     -0.32847083     -0.00992258     -0.02323307      0.01023740
 H     -0.33392694     -0.03995572      0.31934593     -0.03663090     -0.00532417     -0.01127093
    2
 MD step:        3700 time   8.9498720080684997     
 H     -0.07826502     -0.21500104     -0.32729838     -0.00949925     -0.02351693      0.00914713
 H     -0.33838266     -0.04058260      0.31804847     -0.03705423     -0.00504031     -0.01018066
    2
 MD step:        3750 time   9.0708162243937505     
 H     -0.07938758     -0.21786292     -0.32625834     -0.00906318     -0.02380933      0.00805666
 H     -0.34289046     -0.04117456      0.31688343     -0.03749030     -0.00474791     -0.00909018
    2
 MD step:        3800 time   9.1917604407189994     
 H     -0.08045713     -0.22076035     -0.32534865     -0.00862275     -0.02410466      0.00698836
 H     -0.34745129     -0.04173096      0.31584875     -0.03793073     -0.00445258     -0.00802189
    2
 MD step:        3850 time   9.3127046570442502     
 H     -0.08147327     -0.22369359     -0.32456735     -0.00818107     -0.02440082      0.00593329
 H     -0.35206552     -0.04225155      0.31494246     -0.03837241     -0.00415642     -0.00696681
    2
 MD step:        3900 time   9.4336488733695010     
 H     -0.08243629     -0.22666245     -0.32391265     -0.00774579     -0.02469269      0.00489901
 H     -0.35673287     -0.04273652      0.31416276     -0.03880768     -0.00386455     -0.00593253
    2
 MD step:        3950 time   9.5545930896947500     
 H     -0.08334727     -0.22966621     -0.32338167     -0.00732041     -0.02497793      0.00388323
 H     -0.36145227     -0.04318660      0.31350678     -0.03923307     -0.00357931     -0.00491675
    2
 MD step:        4000 time   9.6755373060200007     
 H     -0.08420783     -0.23270378     -0.32297108     -0.00691444     -0.02525014      0.00292003
 H     -0.36622209     -0.04360286      0.31297119     -0.03963904     -0.00330710     -0.00395356
    2
 MD step:        4050 time   9.7964815223452497     
 H     -0.08502067     -0.23577334     -0.32267308     -0.00653125     -0.02550709      0.00201877
 H     -0.37103962     -0.04398713      0.31254819     -0.04002223     -0.00305015     -0.00305229
    2
 MD step:        4100 time   9.9174257386705005     
 H     -0.08578901     -0.23887274     -0.32247830     -0.00618061     -0.02574221      0.00122180
 H     -0.37590165     -0.04434156      0.31222841     -0.04037287     -0.00281503     -0.00225532
    2
 MD step:        4150 time   10.038369954995749     
 H     -0.08651708     -0.24199915     -0.32237366     -0.00586516     -0.02595372      0.00052559
 H     -0.38080396     -0.04466899      0.31199877     -0.04068832     -0.00260352     -0.00155911
    2
 MD step:        4200 time   10.159314171321000     
 H     -0.08720939     -0.24514954     -0.32234673     -0.00559057     -0.02613785     -0.00006282
 H     -0.38574203     -0.04497244      0.31184684     -0.04096291     -0.00241939     -0.00097070
    2
 MD step:        4250 time   10.280258387646251     
 H     -0.08787117     -0.24832039     -0.32238486     -0.00536044     -0.02629216     -0.00055268
 H     -0.39071062     -0.04525542      0.31175997     -0.04119304     -0.00226508     -0.00048085
    2
 MD step:        4300 time   10.401202603971500     
 H     -0.08850780     -0.25150811     -0.32247735     -0.00517536     -0.02641626     -0.00096226
 H     -0.39570436     -0.04552153      0.31172747     -0.04137811     -0.00214098     -0.00007126
    2
 MD step:        4350 time   10.522146820296751     
 H     -0.08912517     -0.25470874     -0.32261325     -0.00504217     -0.02650557     -0.00126945
 H     -0.40071736     -0.04577473      0.31173837     -0.04151130     -0.00205167      0.00023592
    2
 MD step:        4400 time   10.643091036622000     
 H     -0.08972938     -0.25791820     -0.32278112     -0.00495843     -0.02656172     -0.00148738
 H     -0.40574353     -0.04601910      0.31178124     -0.04159505     -0.00199552      0.00045386
    2
 MD step:        4450 time   10.764035252947250     
 H     -0.09032693     -0.26113212     -0.32296738     -0.00493217     -0.02657933     -0.00157243
 H     -0.41077635     -0.04625901      0.31184250     -0.04162131     -0.00197791      0.00053891
    2
 MD step:        4500 time   10.884979469272501     
 H     -0.09092454     -0.26434601     -0.32315699     -0.00495956     -0.02656096     -0.00154115
 H     -0.41580912     -0.04649896      0.31190711     -0.04159392     -0.00199628      0.00050763
    2
 MD step:        4550 time   11.005923685597750     
 H     -0.09152895     -0.26755533     -0.32333475     -0.00504482     -0.02650379     -0.00137894
 H     -0.42083508     -0.04674347      0.31195987     -0.04150866     -0.00205345      0.00034542
    2
 MD step:        4600 time   11.126867901923001     
 H     -0.09214702     -0.27075549     -0.32348631     -0.00518486     -0.02640989     -0.00111139
 H     -0.42584738     -0.04699714      0.31198643     -0.04136862     -0.00214735      0.00007787
    2
 MD step:        4650 time   11.247812118248250     
 H     -0.09278522     -0.27394216     -0.32360032     -0.00537762     -0.02628064     -0.00076046
 H     -0.43083956     -0.04726431      0.31197544     -0.04117586     -0.00227660     -0.00027307
    2
 MD step:        4700 time   11.368756334573501     
 H     -0.09345000     -0.27711100     -0.32366672     -0.00562398     -0.02611545     -0.00032592
 H     -0.43580515     -0.04754930      0.31191685     -0.04092950     -0.00244179     -0.00070760
    2
 MD step:        4750 time   11.489700550898750     
 H     -0.09414745     -0.28025794     -0.32367698     -0.00591761     -0.02591856      0.00016881
 H     -0.44073808     -0.04785619      0.31180210     -0.04063587     -0.00263868     -0.00120234
    2
 MD step:        4800 time   11.610644767224001     
 H     -0.09488353     -0.28337898     -0.32362181     -0.00626269     -0.02568716      0.00075857
 H     -0.44563237     -0.04818899      0.31162194     -0.04029078     -0.00287008     -0.00179209
    2
 MD step:        4850 time   11.731588983549251     
 H     -0.09566405     -0.28647021     -0.32349062     -0.00665176     -0.02542628      0.00142484
 H     -0.45048222     -0.04855159      0.31136575     -0.03990172     -0.00313096     -0.00245836
    2
 MD step:        4900 time   11.852533199874500     
 H     -0.09649437     -0.28952805     -0.32327312     -0.00708633     -0.02513488      0.00218670
 H     -0.45528227     -0.04894758      0.31102325     -0.03946714     -0.00342236     -0.00322022
    2
 MD step:        4950 time   11.973477416199751     
 H     -0.09737975     -0.29254898     -0.32295893     -0.00756082     -0.02481672      0.00301876
 H     -0.46002727     -0.04938049      0.31058406     -0.03899266     -0.00374052     -0.00405228
    2
 MD step:        5000 time   12.094421632525000     
 H     -0.09832465     -0.29552999     -0.32254100     -0.00807015     -0.02447520      0.00389818
 H     -0.46471275     -0.04985331      0.31004114     -0.03848333     -0.00408204     -0.00493171
    2
 MD step:        5050 time   12.215365848850251     
 H     -0.09933317     -0.29846834     -0.32201456     -0.00861257     -0.02411149      0.00481285
 H     -0.46933460     -0.05036879      0.30938969     -0.03794091     -0.00444575     -0.00584638
    2
 MD step:        5100 time   12.336310065175500     
 H     -0.10040891     -0.30136162     -0.32137650     -0.00918007     -0.02373096      0.00573805
 H     -0.47388923     -0.05092935      0.30862664     -0.03737341     -0.00482628     -0.00677158
    2
 MD step:        5150 time   12.457254281500751     
 H     -0.10155474     -0.30420790     -0.32062553     -0.00977233     -0.02333383      0.00668800
 H     -0.47837378     -0.05153689      0.30775067     -0.03678115     -0.00522341     -0.00772153
    2
 MD step:        5200 time   12.578198497826001     
 H     -0.10277350     -0.30700528     -0.31975779     -0.01038398     -0.02292369      0.00766288
 H     -0.48278539     -0.05219335      0.30675792     -0.03616949     -0.00563355     -0.00869640
    2
 MD step:        5250 time   12.699142714151250     
 H     -0.10406711     -0.30975247     -0.31877079     -0.01101080     -0.02250338      0.00866630
 H     -0.48712215     -0.05289999      0.30564593     -0.03554268     -0.00605386     -0.00969982
    2
 MD step:        5300 time   12.820086930476501     
 H     -0.10543740     -0.31244824     -0.31766040     -0.01165020     -0.02207464      0.00969685
 H     -0.49138224     -0.05365805      0.30441054     -0.03490328     -0.00648260     -0.01073037
    2
 MD step:        5350 time   12.941031146801750     
 H     -0.10688534     -0.31509195     -0.31642519     -0.01229409     -0.02164289      0.01072782
 H     -0.49556467     -0.05446818      0.30305033     -0.03425939     -0.00691435     -0.01176134
    2
 MD step:        5400 time   13.061975363127001     
 H     -0.10841121     -0.31768340     -0.31506631     -0.01293846     -0.02121082      0.01173967
 H     -0.49966917     -0.05533056      0.30156645     -0.03361502     -0.00734642     -0.01277319
    2
 MD step:        5450 time   13.182919579452250     
 H     -0.11001484     -0.32022271     -0.31358666     -0.01357817     -0.02078186      0.01271994
 H     -0.50369592     -0.05624509      0.29996180     -0.03297530     -0.00777538     -0.01375346
    2
 MD step:        5500 time   13.303863795777501     
 H     -0.11169507     -0.32271066     -0.31199179     -0.01420520     -0.02036142      0.01364828
 H     -0.50764607     -0.05721097      0.29824193     -0.03234828     -0.00819582     -0.01468180
    2
 MD step:        5550 time   13.424808012102751     
 H     -0.11345048     -0.32514819     -0.31028605     -0.01482028     -0.01994898      0.01455269
 H     -0.51152103     -0.05822727      0.29641119     -0.03173319     -0.00860826     -0.01558622
    2
 MD step:        5600 time   13.545752228428000     
 H     -0.11527898     -0.32753672     -0.30847357     -0.01541302     -0.01955153      0.01541477
 H     -0.51532290     -0.05929257      0.29447371     -0.03114046     -0.00900571     -0.01644829
    2
 MD step:        5650 time   13.666696444753251     
 H     -0.11717787     -0.32987805     -0.30655798     -0.01598395     -0.01916870      0.01625756
 H     -0.51905439     -0.06040508      0.29243313     -0.03056953     -0.00938854     -0.01729109
    2
 MD step:        5700 time   13.787640661078500     
 H     -0.11914407     -0.33217424     -0.30454295     -0.01652447     -0.01880626      0.01705537
 H     -0.52271856     -0.06156272      0.29029310     -0.03002901     -0.00975098     -0.01808889
    2
 MD step:        5750 time   13.908584877403751     
 H     -0.12117350     -0.33442804     -0.30243494     -0.01702906     -0.01846792      0.01779194
 H     -0.52631951     -0.06276276      0.28806009     -0.02952442     -0.01008932     -0.01882546
    2
 MD step:        5800 time   14.029529093729000     
 H     -0.12326163     -0.33664247     -0.30024223     -0.01749423     -0.01815601      0.01845467