    2
 MD step:           0 time   0.0000000000000000     
 H      0.00000000      0.00000000     -0.37000000      0.00857996     -0.00021554     -0.03414805
 H      0.00000000      0.00000000      0.37000000     -0.04530301     -0.01307668     -0.02521986
    2
 MD step:          50 time  0.12094421632525000     
 H      0.00103776     -0.00002606     -0.37413603      0.00858135     -0.00021545     -0.03424074
 H     -0.00547920     -0.00158155      0.36695582     -0.04530440     -0.01307677     -0.02512716
    2
 MD step:         100 time  0.24188843265050000     
 H      0.00207558     -0.00005211     -0.37828041      0.00858100     -0.00021532     -0.03428436
 H     -0.01095846     -0.00316312      0.36392000     -0.04530405     -0.01307690     -0.02508354
    2
 MD step:         150 time  0.36283264897575002     
 H      0.00311376     -0.00007815     -0.38242690      0.00858645     -0.00021537     -0.03427531
 H     -0.01643808     -0.00474470      0.36088628     -0.04530949     -0.01307684     -0.02509259
    2
 MD step:         200 time  0.48377686530100000     
 H      0.00415215     -0.00010423     -0.38656899      0.00858435     -0.00021585     -0.03421130
 H     -0.02191791     -0.00632624      0.35784818     -0.04530739     -0.01307636     -0.02515660
    2
 MD step:         250 time  0.60472108162625005     
 H      0.00519011     -0.00013039     -0.39069996      0.00857961     -0.00021699     -0.03409122
 H     -0.02739731     -0.00790769      0.35479893     -0.04530265     -0.01307522     -0.02527668
    2
 MD step:         300 time  0.72566529795150003     
 H      0.00622765     -0.00015675     -0.39481298      0.00857791     -0.00021903     -0.03391428
 H     -0.03287629     -0.00948895      0.35173175     -0.04530096     -0.01307318     -0.02545363
    2
 MD step:         350 time  0.84660951427675002     
 H      0.00726467     -0.00018342     -0.39890111      0.00857017     -0.00022221     -0.03368002
 H     -0.03835475     -0.01106989      0.34863968     -0.04529322     -0.01307000     -0.02568789
    2
 MD step:         400 time  0.96755373060200001     
 H      0.00830057     -0.00021055     -0.40295751      0.00855760     -0.00022675     -0.03338936
 H     -0.04383209     -0.01265038      0.34551588     -0.04528064     -0.01306546     -0.02597854
    2
 MD step:         450 time   1.0884979469272500     
 H      0.00933410     -0.00023833     -0.40697537      0.00853248     -0.00023287     -0.03304299
 H     -0.04930706     -0.01423022      0.34235352     -0.04525553     -0.01305934     -0.02632491
    2
 MD step:         500 time   1.2094421632525001     
 H      0.01036430     -0.00026695     -0.41094805      0.00850361     -0.00024077     -0.03264273
 H     -0.05477870     -0.01580921      0.33914601     -0.04522665     -0.01305145     -0.02672518
    2
 MD step:         550 time   1.3303863795777500     
 H      0.01139131     -0.00029665     -0.41486921      0.00847883     -0.00025059     -0.03219139
 H     -0.06024715     -0.01738713      0.33588696     -0.04520187     -0.01304163     -0.02717651
    2
 MD step:         600 time   1.4513305959030001     
 H      0.01241439     -0.00032765     -0.41873278      0.00843614     -0.00026251     -0.03169061
 H     -0.06571167     -0.01896374      0.33257033     -0.04515919     -0.01302971     -0.02767729
    2
 MD step:         650 time   1.5722748122282502     
 H      0.01343133     -0.00036023     -0.42253296      0.00837835     -0.00027663     -0.03114398
 H     -0.07117006     -0.02053878      0.32919030     -0.04510139     -0.01301558     -0.02822392
    2
 MD step:         700 time   1.6932190285535000     
 H      0.01444090     -0.00039466     -0.42626445      0.00831719     -0.00029304     -0.03055512
 H     -0.07662106     -0.02211197      0.32574159     -0.04504023     -0.01299917     -0.02881279
    2
 MD step:         750 time   1.8141632448787501     
 H      0.01544303     -0.00043121     -0.42992229      0.00825367     -0.00031183     -0.02992678
 H     -0.08206464     -0.02368303      0.32221922     -0.04497672     -0.01298038     -0.02944112
    2
 MD step:         800 time   1.9351074612040000     
 H      0.01643716     -0.00047018     -0.43350203      0.00818268     -0.00033300     -0.02926421
 H     -0.08750020     -0.02525168      0.31861875     -0.04490573     -0.01295922     -0.03010369
    2
 MD step:         850 time   2.0560516775292501     
 H      0.01742119     -0.00051186     -0.43699970      0.00808647     -0.00035657     -0.02857042
 H     -0.09292567     -0.02681762      0.31493622     -0.04480951     -0.01293565     -0.03079749
    2
 MD step:         900 time   2.1769958938545000     
 H      0.01839284     -0.00055653     -0.44041183      0.00798113     -0.00038249     -0.02785056
 H     -0.09833876     -0.02838057      0.31116815     -0.04470418     -0.01290973     -0.03151735
    2
 MD step:         950 time   2.2979401101797499     
 H      0.01935220     -0.00060447     -0.44373561      0.00788546     -0.00041064     -0.02711048
 H     -0.10373957     -0.02994024      0.30731173     -0.04460851     -0.01288157     -0.03225742
    2
 MD step:        1000 time   2.4188843265050002     
 H      0.02029976     -0.00065595     -0.44696887      0.00777945     -0.00044097     -0.02635391
 H     -0.10912857     -0.03149638      0.30336478     -0.04450250     -0.01285124     -0.03301399
    2
 MD step:        1050 time   2.5398285428302501     
 H      0.02123307     -0.00071122     -0.45010985      0.00765074     -0.00047334     -0.02558562
 H     -0.11450331     -0.03304873      0.29932555     -0.04437379     -0.01281888     -0.03378229
    2
 MD step:        1100 time   2.6607727591554999     
 H      0.02214988     -0.00077051     -0.45315751      0.00751100     -0.00050753     -0.02481161
 H     -0.11986156     -0.03459705      0.29519301     -0.04423405     -0.01278469     -0.03455629
    2
 MD step:        1150 time   2.7817169754807503     
 H      0.02305032     -0.00083405     -0.45611140      0.00738020     -0.00054341     -0.02403549
 H     -0.12520345     -0.03614113      0.29096669     -0.04410325     -0.01274880     -0.03533242
    2
 MD step:        1200 time   2.9026611918060001     
 H      0.02393528     -0.00090201     -0.45897160      0.00725370     -0.00058068     -0.02326361
 H     -0.13052985     -0.03768078      0.28664669     -0.04397675     -0.01271153     -0.03610429
    2
 MD step:        1250 time   3.0236054081312500     
 H      0.02480394     -0.00097456     -0.46173890      0.00710535     -0.00061916     -0.02249953
 H     -0.13583994     -0.03921585      0.28223379     -0.04382839     -0.01267305     -0.03686837
    2
 MD step:        1300 time   3.1445496244565003     
 H      0.02565334     -0.00105182     -0.46441449      0.00694091     -0.00065857     -0.02174801
 H     -0.14113079     -0.04074621      0.27772917     -0.04366395     -0.01263364     -0.03761989
    2
 MD step:        1350 time   3.2654938407817502     
 H      0.02648350     -0.00113388     -0.46700027      0.00679228     -0.00069850     -0.02101570
 H     -0.14640238     -0.04227176      0.27313474     -0.04351533     -0.01259371     -0.03835221
    2
 MD step:        1400 time   3.3864380571070001     
 H      0.02729706     -0.00122079     -0.46949891      0.00665971     -0.00073863     -0.02030714
 H     -0.15165738     -0.04379247      0.26845318     -0.04338276     -0.01255359     -0.03906076
    2
 MD step:        1450 time   3.5073822734322500     
 H      0.02809368     -0.00131255     -0.47191337      0.00651069     -0.00077871     -0.01962478
 H     -0.15689544     -0.04530833      0.26368744     -0.04323374     -0.01251350     -0.03974312
    2
 MD step:        1500 time   3.6283264897575003     
 H      0.02887125     -0.00140913     -0.47424722      0.00634701     -0.00081828     -0.01897465
 H     -0.16211445     -0.04681936      0.25884108     -0.04307006     -0.01247393     -0.04039326
    2
 MD step:        1550 time   3.7492707060827501     
 H      0.02962972     -0.00151045     -0.47650453      0.00620009     -0.00085704     -0.01835953
 H     -0.16731436     -0.04832566      0.25391819     -0.04292314     -0.01243518     -0.04100838
    2
 MD step:        1600 time   3.8702149224080000     
 H      0.03037204     -0.00161639     -0.47868977      0.00607954     -0.00089454     -0.01778395
 H     -0.17249812     -0.04982734      0.24892322     -0.04280258     -0.01239767     -0.04158395
    2
 MD step:        1650 time   3.9911591387332503     
 H      0.03110037     -0.00172676     -0.48080799      0.00596014     -0.00093043     -0.01725101
 H     -0.17766789     -0.05132458      0.24386124     -0.04268319     -0.01236178     -0.04211690
    2
 MD step:        1700 time   4.1121033550585002     
 H      0.03181281     -0.00184137     -0.48286432      0.00582048     -0.00096447     -0.01676132
 H     -0.18282177     -0.05281759      0.23873736     -0.04254352     -0.01232774     -0.04260659
    2
 MD step:        1750 time   4.2330475713837501     
 H      0.03250892     -0.00195996     -0.48486431      0.00569761     -0.00099612     -0.01632021
 H     -0.18795933     -0.05430661      0.23355715     -0.04242065     -0.01229610     -0.04304770
    2
 MD step:        1800 time   4.3539917877090000     
 H      0.03319293     -0.00208220     -0.48681411      0.00561822     -0.00102489     -0.01593118
 H     -0.19308477     -0.05579199      0.22832674     -0.04234127     -0.01226733     -0.04343672
    2
 MD step:        1850 time   4.4749360040342498     
 H      0.03386811     -0.00220775     -0.48871990      0.00554627     -0.00105068     -0.01559270
 H     -0.19820139     -0.05727406      0.22305233     -0.04226931     -0.01224153     -0.04377521
    2
 MD step:        1900 time   4.5958802203594997     
 H      0.03453401     -0.00233621     -0.49058797      0.00546311     -0.00107305     -0.01530762
 H     -0.20330874     -0.05875321      0.21774019     -0.04218616     -0.01221916     -0.04406029
    2
 MD step:        1950 time   4.7168244366847505     
 H      0.03519002     -0.00246716     -0.49242474      0.00539107     -0.00109183     -0.01507510
 H     -0.20840619     -0.06022987      0.21239677     -0.04211412     -0.01220039     -0.04429281
    2
 MD step:        2000 time   4.8377686530100004     
 H      0.03583989     -0.00260015     -0.49423663      0.00536438     -0.00110664     -0.01489673
 H     -0.21349750     -0.06170450      0.20702845     -0.04208742     -0.01218557     -0.04447118
    2
 MD step:        2050 time   4.9587128693352502     
 H      0.03648904     -0.00273468     -0.49603030      0.00536978     -0.00111723     -0.01477271
 H     -0.21858809     -0.06317760      0.20164192     -0.04209283     -0.01217498     -0.04459519
    2
 MD step:        2100 time   5.0796570856605001     
 H      0.03713791     -0.00287024     -0.49781192      0.00535803     -0.00112385     -0.01469727
 H     -0.22367840     -0.06464965      0.19624332     -0.04208108     -0.01216837     -0.04467063
    2
 MD step:        2150 time   5.2006013019857500     
 H      0.03778526     -0.00300635     -0.49958742      0.00535187     -0.00112612     -0.01467194
 H     -0.22876719     -0.06612116      0.19083863     -0.04207492     -0.01216609     -0.04469596
    2
 MD step:        2200 time   5.3215455183109999     
 H      0.03843468     -0.00314245     -0.50136291      0.00539636     -0.00112385     -0.01469639
 H     -0.23385805     -0.06759267      0.18543391     -0.04211941     -0.01216837     -0.04467152
    2
 MD step:        2250 time   5.4424897346362506     
 H      0.03909195     -0.00327802     -0.50314409      0.00547605     -0.00111725     -0.01476564
 H     -0.23895676     -0.06906472      0.18003489     -0.04219909     -0.01217496     -0.04460226
    2
 MD step:        2300 time   5.5634339509615005     
 H      0.03975913     -0.00341253     -0.50493629      0.00555209     -0.00110635     -0.01487738
 H     -0.24406538     -0.07053783      0.17464688     -0.04227514     -0.01218587     -0.04449052
    2
 MD step:        2350 time   5.6843781672867504     
 H      0.04043437     -0.00354548     -0.50674416      0.00561651     -0.00109165     -0.01502425
 H     -0.24918205     -0.07201249      0.16927454     -0.04233956     -0.01220056     -0.04434366
    2
 MD step:        2400 time   5.8053223836120003     
 H      0.04111932     -0.00367642     -0.50857188      0.00572086     -0.00107301     -0.01520591
 H     -0.25430845     -0.07348916      0.16392206     -0.04244391     -0.01221920     -0.04416199
    2
 MD step:        2450 time   5.9262665999372501     
 H      0.04182042     -0.00380488     -0.51042356      0.00587574     -0.00105067     -0.01541846
 H     -0.25945099     -0.07496832      0.15859354     -0.04259879     -0.01224154     -0.04394944
    2
 MD step:        2500 time   6.0472108162625000     
 H      0.04254002     -0.00393046     -0.51230223      0.00602006     -0.00102557     -0.01565158
 H     -0.26461203     -0.07645036      0.15329200     -0.04274311     -0.01226664     -0.04371633
    2
 MD step:        2550 time   6.1681550325877499     
 H      0.04327564     -0.00405285     -0.51421021      0.00614300     -0.00099793     -0.01590222
 H     -0.26978909     -0.07793559      0.14801977     -0.04286605     -0.01229428     -0.04346568
    2
 MD step:        2600 time   6.2890992489130007     
 H      0.04402695     -0.00417176     -0.51614931      0.00628864     -0.00096820     -0.01616558
 H     -0.27498184     -0.07942429      0.14277867     -0.04301169     -0.01232401     -0.04320233
    2
 MD step:        2650 time   6.4100434652382505     
 H      0.04479866     -0.00428698     -0.51812082      0.00647957     -0.00093674     -0.01643784
 H     -0.28019499     -0.08091669      0.13756998     -0.04320262     -0.01235547     -0.04293006
    2
 MD step:        2700 time   6.5309876815635004     
 H      0.04559437     -0.00439831     -0.52012556      0.00667115     -0.00090426     -0.01671262
 H     -0.28543213     -0.08241298      0.13239451     -0.04339420     -0.01238795     -0.04265529
    2
 MD step:        2750 time   6.6519318978887503     
 H      0.04641036     -0.00450572     -0.52216303      0.00681768     -0.00087209     -0.01697872
 H     -0.29068957     -0.08391318      0.12725178     -0.04354073     -0.01242012     -0.04238918
    2
 MD step:        2800 time   6.7728761142140002     
 H      0.04724347     -0.00460927     -0.52423217      0.00696497     -0.00084026     -0.01723617
 H     -0.29596412     -0.08541725      0.12214071     -0.04368801     -0.01245195     -0.04213174
    2
 MD step:        2850 time   6.8938203305392500     
 H      0.04809694     -0.00470901     -0.52633172      0.00715244     -0.00080948     -0.01747972
 H     -0.30125903     -0.08692512      0.11706005     -0.04387548     -0.01248274     -0.04188818
    2
 MD step:        2900 time   7.0147645468644999     
 H      0.04897345     -0.00480516     -0.52845946      0.00733756     -0.00078075     -0.01770218
 H     -0.30657698     -0.08843659      0.11200759     -0.04406061     -0.01251147     -0.04166572
    2
 MD step:        2950 time   7.1357087631897507     
 H      0.04986948     -0.00489799     -0.53061257      0.00746867     -0.00075499     -0.01789737
 H     -0.31191445     -0.08995138      0.10698049     -0.04419172     -0.01253722     -0.04147053
    2
 MD step:        3000 time   7.2566529795150005     
 H      0.05077874     -0.00498793     -0.53278731      0.00756788     -0.00073305     -0.01806020
 H     -0.31726515     -0.09146905      0.10197504     -0.04429093     -0.01255917     -0.04130770
    2
 MD step:        3050 time   7.3775971958402504     
 H      0.05170131     -0.00507545     -0.53497992      0.00769576     -0.00071476     -0.01819307
 H     -0.32262916     -0.09298915      0.09698744     -0.04441881     -0.01257745     -0.04117483
    2
 MD step:        3100 time   7.4985414121655003     
 H      0.05264053     -0.00516101     -0.53718659      0.00782782     -0.00070109     -0.01829043
 H     -0.32800982     -0.09451120      0.09201390     -0.04455087     -0.01259113     -0.04107747
    2
 MD step:        3150 time   7.6194856284907502     
 H      0.05359199     -0.00524528     -0.53940239      0.00789390     -0.00069336     -0.01834436
 H     -0.33340272     -0.09603455      0.08704950     -0.04461694     -0.01259885     -0.04102355
    2
 MD step:        3200 time   7.7404298448160000     
 H      0.05454762     -0.00532897     -0.54162216      0.00790534     -0.00069171     -0.01835570
 H     -0.33879979     -0.09755848      0.08208906     -0.04462839     -0.01260050     -0.04101220
    2
 MD step:        3250 time   7.8613740611412499     
 H      0.05550470     -0.00541286     -0.54384066      0.00792526     -0.00069656     -0.01832328
 H     -0.34419831     -0.09908221      0.07712736     -0.04464830     -0.01259565     -0.04104462
    2
 MD step:        3300 time   7.9823182774665007     
 H      0.05646520     -0.00549773     -0.54605264      0.00795621     -0.00070801     -0.01824824
 H     -0.34960025     -0.10060495      0.07215914     -0.04467926     -0.01258421     -0.04111966
    2
 MD step:        3350 time   8.1032624937917497     
 H      0.05742656     -0.00558443     -0.54825275      0.00792404     -0.00072716     -0.01812501
 H     -0.35500305     -0.10212587      0.06717904     -0.04464708     -0.01256505     -0.04124290
    2
 MD step:        3400 time   8.2242067101170004     
 H      0.05837856     -0.00567396     -0.55043481      0.00781068     -0.00075475     -0.01795094
 H     -0.36039649     -0.10364395      0.06218090     -0.04453373     -0.01253747     -0.04141696
    2
 MD step:        3450 time   8.3451509264422494     
 H      0.05931568     -0.00576729     -0.55259315      0.00769188     -0.00078978     -0.01773404
 H     -0.36577505     -0.10515824      0.05715904     -0.04441493     -0.01250244     -0.04163386
    2
 MD step:        3500 time   8.4660951427675002     
 H      0.06024006     -0.00586531     -0.55472278      0.00759098     -0.00083246     -0.01747474
 H     -0.37114087     -0.10666784      0.05210845     -0.04431403     -0.01245976     -0.04189316
    2
 MD step:        3550 time   8.5870393590927510     
 H      0.06114966     -0.00596899     -0.55681826      0.00743724     -0.00088354     -0.01717019
 H     -0.37649191     -0.10817177      0.04702373     -0.04416029     -0.01240868     -0.04219771
    2
 MD step:        3600 time   8.7079835754179999     
 H      0.06203524     -0.00607936     -0.55887428      0.00719441     -0.00094306     -0.01682186
 H     -0.38181893     -0.10966902      0.04189955     -0.04391745     -0.01234916     -0.04254604
    2
 MD step:        3650 time   8.8289277917432507     
 H      0.06288884     -0.00619744     -0.56088561      0.00692345     -0.00101087     -0.01643228
 H     -0.38711397     -0.11115855      0.03673067     -0.04364650     -0.01228135     -0.04293563
    2
 MD step:        3700 time   8.9498720080684997     
 H      0.06371119     -0.00632417     -0.56284773      0.00667997     -0.00108581     -0.01600950
 H     -0.39237776     -0.11263945      0.03151258     -0.04340302     -0.01220640     -0.04335840
    2
 MD step:        3750 time   9.0708162243937505     
 H      0.06450356     -0.00646039     -0.56475675      0.00640818     -0.00116830     -0.01555258
 H     -0.39761158     -0.11411084      0.02624141     -0.04313122     -0.01212391     -0.04381533
    2
 MD step:        3800 time   9.1917604407189994     
 H      0.06525713     -0.00660711     -0.56660818      0.00603921     -0.00125919     -0.01505812
 H     -0.40280658     -0.11557174      0.02091263     -0.04276226     -0.01203302     -0.04430978
    2
 MD step:        3850 time   9.3127046570442502     
 H      0.06596270     -0.00676525     -0.56839803      0.00563055     -0.00135689     -0.01453607
 H     -0.40795359     -0.11702121      0.01552227     -0.04235360     -0.01193532     -0.04483183
    2
 MD step:        3900 time   9.4336488733695010     
 H      0.06662080     -0.00693555     -0.57012346      0.00525733     -0.00146038     -0.01399291
 H     -0.41305313     -0.11845852      0.01006750     -0.04198037     -0.01183183     -0.04537500
    2
 MD step:        3950 time   9.5545930896947500     
 H      0.06723411     -0.00711874     -0.57178187      0.00487776     -0.00156984     -0.01342853
 H     -0.41810788     -0.11988295      0.00454571     -0.04160081     -0.01172237     -0.04593938
    2
 MD step:        4000 time   9.6755373060200007     
 H      0.06779746     -0.00731550     -0.57337092      0.00442146     -0.00168495     -0.01284543
 H     -0.42311267     -0.12129381     -0.00104545     -0.04114450     -0.01160726     -0.04652248
    2
 MD step:        4050 time   9.7964815223452497     
 H      0.06830116     -0.00752654     -0.57488831      0.00390714     -0.00180563     -0.01224480
 H     -0.42805781     -0.12269039     -0.00670826     -0.04063019     -0.01148658     -0.04712311
    2
 MD step:        4100 time   9.9174257386705005     
 H      0.06874407     -0.00775241     -0.57633251      0.00342811     -0.00192990     -0.01163706
 H     -0.43294217     -0.12407213     -0.01244427     -0.04015115     -0.01136231     -0.04773084
    2
 MD step:        4150 time   10.038369954995749     
 H      0.06913209     -0.00799346     -0.57770315      0.00298492     -0.00205672     -0.01102766
 H     -0.43777162     -0.12543870     -0.01825383     -0.03970797     -0.01123550     -0.04834024
    2
 MD step:        4200 time   10.159314171321000     
 H      0.06946308     -0.00825008     -0.57899960      0.00247376     -0.00218752     -0.01041002
 H     -0.44254405     -0.12678970     -0.02413759     -0.03919680     -0.01110469     -0.04895788
    2
 MD step:        4250 time   10.280258387646251     
 H      0.06972795     -0.00852269     -0.58022119      0.00190328     -0.00232081     -0.00979155
 H     -0.44725036     -0.12812470     -0.03009620     -0.03862633     -0.01097140     -0.04957635
    2
 MD step:        4300 time   10.401202603971500     
 H      0.06992516     -0.00881147     -0.58136842      0.00137074     -0.00245461     -0.00918150
 H     -0.45188901     -0.12944354     -0.03612918     -0.03809379     -0.01083760     -0.05018641
    2
 MD step:        4350 time   10.522146820296751     
 H      0.07006175     -0.00911644     -0.58244247      0.00089161     -0.00258852     -0.00858151
 H     -0.45646705     -0.13074618     -0.04223533     -0.03761466     -0.01070370     -0.05078639
    2
 MD step:        4400 time   10.643091036622000     
 H      0.07013998     -0.00943758     -0.58344473      0.00039046     -0.00272192     -0.00799420
 H     -0.46098671     -0.13203266     -0.04841328     -0.03711351     -0.01057030     -0.05137370
    2
 MD step:        4450 time   10.764035252947250     
 H      0.07015321     -0.00977485     -0.58437657     -0.00017724     -0.00285525     -0.00741736
 H     -0.46544138     -0.13330301     -0.05466164     -0.03654580     -0.01043696     -0.05195055
    2
 MD step:        4500 time   10.884979469272501     
 H      0.07009822     -0.01012815     -0.58523964     -0.00071895     -0.00298663     -0.00685888
 H     -0.46982784     -0.13455732     -0.06097878     -0.03600410     -0.01030558     -0.05250902
    2
 MD step:        4550 time   11.005923685597750     
 H      0.06998328     -0.01049709     -0.58603682     -0.00116944     -0.00311362     -0.00632851
 H     -0.47415434     -0.13579600     -0.06736179     -0.03555361     -0.01017859     -0.05303940
    2
 MD step:        4600 time   11.126867901923001     
 H      0.06981531     -0.01088119     -0.58677127     -0.00161780     -0.00323761     -0.00581976
 H     -0.47842781     -0.13701952     -0.07380755     -0.03510525     -0.01005460     -0.05354815
    2
 MD step:        4650 time   11.247812118248250     
 H      0.06958958     -0.01128010     -0.58744544     -0.00212130     -0.00335835     -0.00533307
 H     -0.48264351     -0.13822822     -0.08031358     -0.03460175     -0.00993386     -0.05403483
    2
 MD step:        4700 time   11.368756334573501     
 H      0.06930292     -0.01169332     -0.58806249     -0.00260521     -0.00347368     -0.00487642
 H     -0.48679830     -0.13942262     -0.08687674     -0.03411783     -0.00981853     -0.05449149
    2
 MD step:        4750 time   11.489700550898750     
 H      0.06896356     -0.01212008     -0.58862635     -0.00299189     -0.00358246     -0.00445340
 H     -0.49090038     -0.14060347     -0.09349308     -0.03373116     -0.00970976     -0.05491451
    2
 MD step:        4800 time   11.610644767224001     
 H      0.06858133     -0.01255958     -0.58914114     -0.00332882     -0.00368409     -0.00406520
 H     -0.49495958     -0.14177159     -0.10015850     -0.03339423     -0.00960812     -0.05530270
    2
 MD step:        4850 time   11.731588983549251     
 H      0.06815634     -0.01301098     -0.58961087     -0.00370855     -0.00377962     -0.00370694
 H     -0.49897604     -0.14292781     -0.10686898     -0.03301449     -0.00951259     -0.05566097
    2
 MD step:        4900 time   11.852533199874500     
 H      0.06768421     -0.01347356     -0.59003906     -0.00408844     -0.00386839     -0.00338008
 H     -0.50294535     -0.14407285     -0.11362099     -0.03263461     -0.00942383     -0.05598782
    2
 MD step:        4950 time   11.973477416199751     
 H      0.06717199     -0.01394630     -0.59043016     -0.00435923     -0.00394731     -0.00309477
 H     -0.50687456     -0.14520773     -0.12041009     -0.03236382     -0.00934490     -0.05627313
    2
 MD step:        5000 time   12.094421632525000     
 H      0.06663312     -0.01442799     -0.59078918     -0.00455048     -0.00401706     -0.00284729
 H     -0.51077713     -0.14633365     -0.12723128     -0.03217257     -0.00927515     -0.05652061
    2
 MD step:        5050 time   12.215365848850251     
 H      0.06607007     -0.01491767     -0.59112014     -0.00476732     -0.00407916     -0.00263107
 H     -0.51465552     -0.14745158     -0.13408053     -0.03195573     -0.00921306     -0.05673683
    2
 MD step:        5100 time   12.336310065175500     
 H      0.06547930     -0.01541434     -0.59142697     -0.00499516     -0.00413252     -0.00244874
 H     -0.51850619     -0.14856253     -0.14095390     -0.03172789     -0.00915970     -0.05691916
    2
 MD step:        5150 time   12.457254281500751     
 H      0.06486578     -0.01591688     -0.59171394     -0.00512980     -0.00417598     -0.00230304
 H     -0.52233411     -0.14966761     -0.14784713     -0.03159325     -0.00911623     -0.05706487
    2
 MD step:        5200 time   12.578198497826001     
 H      0.06424293     -0.01642403     -0.59198559     -0.00515764     -0.00420870     -0.00219546
 H     -0.52615271     -0.15076807     -0.15475569     -0.03156541     -0.00908352     -0.05717244
    2
 MD step:        5250 time   12.699142714151250     
 H      0.06361802     -0.01693456     -0.59224622     -0.00518680     -0.00423265     -0.00211825
 H     -0.52996923     -0.15186516     -0.16167526     -0.03153624     -0.00905957     -0.05724966
    2
 MD step:        5300 time   12.820086930476501     
 H      0.06298663     -0.01744757     -0.59249893     -0.00525228     -0.00424934     -0.00206545
 H     -0.53377929     -0.15295976     -0.16860275     -0.03147077     -0.00904287     -0.05730245
    2
 MD step:        5350 time   12.941031146801750     
 H      0.06235063     -0.01796202     -0.59274712     -0.00524260     -0.00425607     -0.00204455
 H     -0.53758473     -0.15405293     -0.17553477     -0.03148045     -0.00903614     -0.05732336
    2
 MD step:        5400 time   13.061975363127001     
 H      0.06172346     -0.01847667     -0.59299470     -0.00511754     -0.00425313     -0.00205345
 H     -0.54139900     -0.15514590     -0.18246739     -0.03160551     -0.00903909     -0.05731445
    2
 MD step:        5450 time   13.182919579452250     
 H      0.06111327     -0.01899051     -0.59324470     -0.00497817     -0.00424283     -0.00208402
 H     -0.54523024     -0.15623967     -0.18939761     -0.03174488     -0.00904938     -0.05728389
    2
 MD step:        5500 time   13.303863795777501     
 H      0.06051705     -0.01950273     -0.59349947     -0.00488718     -0.00422654     -0.00213145
 H     -0.54907547     -0.15733508     -0.19632303     -0.03183587     -0.00906568     -0.05723645
    2
 MD step:        5550 time   13.424808012102751     
 H      0.05993241     -0.02001262     -0.59376091     -0.00476568     -0.00420427     -0.00219491
 H     -0.55293226     -0.15843280     -0.20324180     -0.03195737     -0.00908795     -0.05717299
    2
 MD step:        5600 time   13.545752228428000     
 H      0.05936912     -0.02051937     -0.59403123     -0.00453050     -0.00417425     -0.00227866
 H     -0.55681041     -0.15953366     -0.21015168     -0.03219255     -0.00911797     -0.05708924
    2
 MD step:        5650 time   13.666696444753251     
 H      0.05883774     -0.02102213     -0.59431254     -0.00426593     -0.00413950     -0.00237358
 H     -0.56072048     -0.16063852     -0.21705058     -0.03245712     -0.00915271     -0.05699432
    2
 MD step:        5700 time   13.787640661078500     
 H      0.05833416     -0.02152061     -0.59460544     -0.00407196     -0.00410325     -0.00247047
 H     -0.56465834     -0.16174766     -0.22393788     -0.03265109     -0.00918897     -0.05689744
    2
 MD step:        5750 time   13.908584877403751     
 H      0.05785231     -0.02201456     -0.59491030     -0.00388649     -0.00406443     -0.00257191
 H     -0.56861793     -0.16286132     -0.23081323     -0.03283655     -0.00922778     -0.05679599
    2
 MD step:        5800 time   14.029529093729000     
 H      0.05739776     -0.02250365     -0.59522773     -0.00361632     -0.00402311     -0.00267754