    2
 MD step:           0 time   0.0000000000000000     
 H      0.00000000      0.00000000     -0.37000000      0.04250580     -0.00100375      0.01300242
 H      0.00000000      0.00000000      0.37000000     -0.04589832     -0.01174335      0.01370027
    2
 MD step:          50 time  0.12094421632525000     
 H      0.00514086     -0.00012139     -0.36843430      0.04250648     -0.00100365      0.01288902
 H     -0.00555116     -0.00142029      0.37166383     -0.04589900     -0.01174345      0.01381367
    2
 MD step:         100 time  0.24188843265050000     
 H      0.01028193     -0.00024276     -0.36688183      0.04250940     -0.00100338      0.01278611
 H     -0.01110254     -0.00284061      0.37334090     -0.04590191     -0.01174371      0.01391658
    2
 MD step:         150 time  0.36283264897575002     
 H      0.01542339     -0.00036410     -0.36534069      0.04251267     -0.00100302      0.01270275
 H     -0.01665430     -0.00426097      0.37502930     -0.04590519     -0.01174408      0.01399994
    2
 MD step:         200 time  0.48377686530100000     
 H      0.02056529     -0.00048538     -0.36380809      0.04251649     -0.00100268      0.01264642
 H     -0.02220651     -0.00568137      0.37672623     -0.04590901     -0.01174442      0.01405627
    2
 MD step:         250 time  0.60472108162625005     
 H      0.02570752     -0.00060664     -0.36228029      0.04251789     -0.00100251      0.01262430
 H     -0.02775905     -0.00710180      0.37842797     -0.04591041     -0.01174459      0.01407838
    2
 MD step:         300 time  0.72566529795150003     
 H      0.03084976     -0.00072789     -0.36075277      0.04251650     -0.00100270      0.01264297
 H     -0.03331160     -0.00852223      0.38012998     -0.04590902     -0.01174440      0.01405971
    2
 MD step:         350 time  0.84660951427675002     
 H      0.03599168     -0.00084920     -0.35922022      0.04251229     -0.00100345      0.01270833
 H     -0.03886382     -0.00994261      0.38182697     -0.04590481     -0.01174365      0.01399436
    2
 MD step:         400 time  0.96755373060200001     
 H      0.04113270     -0.00097065     -0.35767667      0.04250129     -0.00100500      0.01282582
 H     -0.04441515     -0.01136285      0.38351295     -0.04589381     -0.01174210      0.01387687
    2
 MD step:         450 time   1.0884979469272500     
 H      0.04627191     -0.00109234     -0.35611553      0.04248150     -0.00100760      0.01299982
 H     -0.04996466     -0.01278285      0.38518135     -0.04587402     -0.01173950      0.01370287
    2
 MD step:         500 time   1.2094421632525001     
 H      0.05140798     -0.00121443     -0.35452972      0.04244938     -0.00101151      0.01323429
 H     -0.05551103     -0.01420245      0.38682508     -0.04584190     -0.01173558      0.01346840
    2
 MD step:         550 time   1.3303863795777500     
 H      0.05653942     -0.00133708     -0.35291175      0.04240491     -0.00101700      0.01353209
 H     -0.06105278     -0.01562148      0.38843664     -0.04579743     -0.01173010      0.01317060
    2
 MD step:         600 time   1.4513305959030001     
 H      0.06166476     -0.00146050     -0.35125384      0.04234815     -0.00102432      0.01389521
 H     -0.06658843     -0.01703975      0.39000826     -0.04574067     -0.01172277      0.01280747
    2
 MD step:         650 time   1.5722748122282502     
 H      0.06678222     -0.00158494     -0.34954796      0.04227368     -0.00103375      0.01432526
 H     -0.07211619     -0.01845700      0.39153192     -0.04566620     -0.01171335      0.01237743
    2
 MD step:         700 time   1.6932190285535000     
 H      0.07188946     -0.00171065     -0.34778602      0.04217870     -0.00104551      0.01482247
 H     -0.07763374     -0.01987298      0.39299951     -0.04557122     -0.01170158      0.01188022
    2
 MD step:         750 time   1.8141632448787501     
 H      0.07698382     -0.00183794     -0.34595987      0.04206084     -0.00105985      0.01538671
 H     -0.08313840     -0.02128738      0.39440291     -0.04545336     -0.01168725      0.01131597
    2
 MD step:         800 time   1.9351074612040000     
 H      0.08206262     -0.00196713     -0.34406149      0.04192153     -0.00107697      0.01601683
 H     -0.08862751     -0.02269988      0.39573406     -0.04531405     -0.01167013      0.01068586
    2
 MD step:         850 time   2.0560516775292501     
 H      0.08712334     -0.00209856     -0.34208302      0.04176154     -0.00109703      0.01671077
 H     -0.09409853     -0.02411013      0.39698512     -0.04515406     -0.01165006      0.00999192
    2
 MD step:         900 time   2.1769958938545000     
 H      0.09216317     -0.00223261     -0.34001685      0.04157493     -0.00112022      0.01746656
 H     -0.09954867     -0.02551777      0.39814850     -0.04496745     -0.01162688      0.00923613
    2
 MD step:         950 time   2.2979401101797499     
 H      0.09717867     -0.00236966     -0.33785569      0.04135913     -0.00114664      0.01828114
 H     -0.10497447     -0.02692240      0.39921687     -0.04475165     -0.01160046      0.00842155
    2
 MD step:        1000 time   2.4188843265050002     
 H      0.10216629     -0.00251011     -0.33559263      0.04111455     -0.00117640      0.01915105
 H     -0.11037240     -0.02832365      0.40018334     -0.04450707     -0.01157070      0.00755163
    2
 MD step:        1050 time   2.5398285428302501     
 H      0.10712278     -0.00265435     -0.33322119      0.04084449     -0.00120955      0.02007260
 H     -0.11573919     -0.02972109      0.40104144     -0.04423700     -0.01153754      0.00663008
    2
 MD step:        1100 time   2.6607727591554999     
 H      0.11204514     -0.00280282     -0.33073541      0.04055013     -0.00124612      0.02104105
 H     -0.12107186     -0.03111431      0.40178519     -0.04394265     -0.01150097      0.00566164
    2
 MD step:        1150 time   2.7817169754807503     
 H      0.11693017     -0.00295592     -0.32812987      0.04022602     -0.00128612      0.02205232
 H     -0.12636720     -0.03250290      0.40240919     -0.04361854     -0.01146097      0.00465037
    2
 MD step:        1200 time   2.9026611918060001     
 H      0.12177406     -0.00311406     -0.32539969      0.03987012     -0.00132951      0.02310142
 H     -0.13162139     -0.03388645      0.40290854     -0.04326264     -0.01141759      0.00360126
    2
 MD step:        1250 time   3.0236054081312500     
 H      0.12657317     -0.00327764     -0.32254060      0.03948649     -0.00137619      0.02418291
 H     -0.13683080     -0.03526455      0.40327899     -0.04287901     -0.01137091      0.00251978
    2
 MD step:        1300 time   3.1445496244565003     
 H      0.13132451     -0.00344707     -0.31954904      0.03908072     -0.00142605      0.02529132
 H     -0.14199245     -0.03663681      0.40351696     -0.04247324     -0.01132104      0.00141137
    2
 MD step:        1350 time   3.2654938407817502     
 H      0.13602546     -0.00362271     -0.31642206      0.03865299     -0.00147896      0.02642113
 H     -0.14710370     -0.03800286      0.40361952     -0.04204551     -0.01126814      0.00028156
    2
 MD step:        1400 time   3.3864380571070001     
 H      0.14067319     -0.00380492     -0.31315744      0.03819966     -0.00153472      0.02756668
 H     -0.15216175     -0.03936233      0.40358444     -0.04159217     -0.01121238     -0.00086399
    2
 MD step:        1450 time   3.5073822734322500     
 H      0.14526440     -0.00399405     -0.30975356      0.03771914     -0.00159317      0.02872297
 H     -0.15716326     -0.04071489      0.40341010     -0.04111166     -0.01115393     -0.00202028
    2
 MD step:        1500 time   3.6283264897575003     
 H      0.14979622     -0.00419039     -0.30620951      0.03721913     -0.00165404      0.02988368
 H     -0.16210539     -0.04206024      0.40309558     -0.04061165     -0.01109306     -0.00318099
    2
 MD step:        1550 time   3.7492707060827501     
 H      0.15426682     -0.00439423     -0.30252510      0.03670724     -0.00171705      0.03104305
 H     -0.16698630     -0.04339809      0.40264071     -0.04009976     -0.01103005     -0.00434036
    2
 MD step:        1600 time   3.8702149224080000     
 H      0.15867472     -0.00460580     -0.29870081      0.03618174     -0.00178194      0.03219602
 H     -0.17180450     -0.04472820      0.40204595     -0.03957426     -0.01096516     -0.00549333
    2
 MD step:        1650 time   3.9911591387332503     
 H      0.16301814     -0.00482532     -0.29473775      0.03564035     -0.00184838      0.03333683
 H     -0.17655822     -0.04605037      0.40131243     -0.03903287     -0.01089872     -0.00663415
    2
 MD step:        1700 time   4.1121033550585002     
 H      0.16729506     -0.00505295     -0.29063770      0.03508349     -0.00191605      0.03446062
 H     -0.18124545     -0.04736443      0.40044191     -0.03847601     -0.01083105     -0.00775794
    2
 MD step:        1750 time   4.2330475713837501     
 H      0.17150421     -0.00528882     -0.28640304      0.03452120     -0.00198458      0.03556173
 H     -0.18586490     -0.04867024      0.39943679     -0.03791372     -0.01076252     -0.00885904
    2
 MD step:        1800 time   4.3539917877090000     
 H      0.17564550     -0.00553301     -0.28203688      0.03396223     -0.00205352      0.03663445
 H     -0.19041650     -0.04996774      0.39830016     -0.03735475     -0.01069357     -0.00993176
    2
 MD step:        1850 time   4.4749360040342498     
 H      0.17971929     -0.00578555     -0.27754289      0.03340363     -0.00212255      0.03767478
 H     -0.19490059     -0.05125689      0.39703571     -0.03679615     -0.01062455     -0.01097209
    2
 MD step:        1900 time   4.5958802203594997     
 H      0.18372536     -0.00604642     -0.27292527      0.03284268     -0.00219125      0.03867828
 H     -0.19931697     -0.05253771      0.39564762     -0.03623520     -0.01055584     -0.01197560
    2
 MD step:        1950 time   4.7168244366847505     
 H      0.18766360     -0.00631556     -0.26818872      0.03228333     -0.00225921      0.03964063
 H     -0.20366551     -0.05381026      0.39414061     -0.03567585     -0.01048789     -0.01293794
    2
 MD step:        2000 time   4.8377686530100004     
 H      0.19153485     -0.00659285     -0.26333847      0.03173674     -0.00232599      0.04055801
 H     -0.20794707     -0.05507465      0.39251989     -0.03512926     -0.01042110     -0.01385533
    2
 MD step:        2050 time   4.9587128693352502     
 H      0.19534118     -0.00687813     -0.25838019      0.03121052     -0.00239114      0.04142623
 H     -0.21216371     -0.05633107      0.39079115     -0.03460304     -0.01035596     -0.01472354
    2
 MD step:        2100 time   5.0796570856605001     
 H      0.19908499     -0.00717116     -0.25332002      0.03070115     -0.00245428      0.04224286
 H     -0.21631783     -0.05757972      0.38896052     -0.03409367     -0.01029282     -0.01554017
    2
 MD step:        2150 time   5.2006013019857500     
 H      0.20276793     -0.00747169     -0.24816430      0.03020442     -0.00251504      0.04300580
 H     -0.22041107     -0.05882088      0.38703433     -0.03359694     -0.01023206     -0.01630312
    2
 MD step:        2200 time   5.3215455183109999     
 H      0.20639187     -0.00777941     -0.24291969      0.02972741     -0.00257299      0.04371226
 H     -0.22444532     -0.06005485      0.38501926     -0.03311993     -0.01017411     -0.01700957
    2
 MD step:        2250 time   5.4424897346362506     
 H      0.20995994     -0.00809394     -0.23759317      0.02928199     -0.00262772      0.04436026
 H     -0.22842369     -0.06128201      0.38292227     -0.03267451     -0.01011938     -0.01765757
    2
 MD step:        2300 time   5.5634339509615005     
 H      0.21347629     -0.00841488     -0.23219186      0.02887234     -0.00267887      0.04494854
 H     -0.23235035     -0.06250276      0.38075050     -0.03226486     -0.01006823     -0.01824585
    2
 MD step:        2350 time   5.6843781672867504     
 H      0.21694510     -0.00874177     -0.22672307      0.02849389     -0.00272613      0.04547652
 H     -0.23622946     -0.06371755      0.37851124     -0.03188640     -0.01002097     -0.01877383
    2
 MD step:        2400 time   5.8053223836120003     
 H      0.22036963     -0.00907413     -0.22119400      0.02814082     -0.00276932      0.04594534
 H     -0.24006429     -0.06492688      0.37621171     -0.03153334     -0.00997778     -0.01924265
    2
 MD step:        2450 time   5.9262665999372501     
 H      0.22375340     -0.00941146     -0.21561183      0.02782174     -0.00280813      0.04635462
 H     -0.24385837     -0.06613124      0.37385907     -0.03121426     -0.00993897     -0.01965193
    2
 MD step:        2500 time   6.0472108162625000     
 H      0.22710122     -0.00975320     -0.20998372      0.02754746     -0.00284234      0.04670521
 H     -0.24761650     -0.06733118      0.37146050     -0.03093998     -0.00990476     -0.02000252
    2
 MD step:        2550 time   6.1681550325877499     
 H      0.23041858     -0.01009880     -0.20431665      0.02731724     -0.00287186      0.04699926
 H     -0.25134416     -0.06852727      0.36902297     -0.03070976     -0.00987523     -0.02029657
    2
 MD step:        2600 time   6.2890992489130007     
 H      0.23371043     -0.01044768     -0.19861733      0.02712346     -0.00289666      0.04723919
 H     -0.25504631     -0.06972008      0.36655318     -0.03051598     -0.00985044     -0.02053650
    2
 MD step:        2650 time   6.4100434652382505     
 H      0.23698059     -0.01079928     -0.19289205      0.02695910     -0.00291684      0.04742900
 H     -0.25872678     -0.07091017      0.36405744     -0.03035162     -0.00983026     -0.02072631
    2
 MD step:        2700 time   6.5309876815635004     
 H      0.24023303     -0.01115304     -0.18714672      0.02683233     -0.00293239      0.04757118
 H     -0.26238953     -0.07209809      0.36154165     -0.03022485     -0.00981470     -0.02086849
    2
 MD step:        2750 time   6.6519318978887503     
 H      0.24347290     -0.01150841     -0.18138693      0.02675142     -0.00294341      0.04766903
 H     -0.26603971     -0.07328441      0.35901139     -0.03014394     -0.00980369     -0.02096635
    2
 MD step:        2800 time   6.7728761142140002     
 H      0.24670546     -0.01186485     -0.17561771      0.02670958     -0.00295021      0.04772777
 H     -0.26968257     -0.07446966      0.35647170     -0.03010210     -0.00979688     -0.02102508
    2
 MD step:        2850 time   6.8938203305392500     
 H      0.24993477     -0.01222187     -0.16984352      0.02669536     -0.00295312      0.04775219
 H     -0.27332218     -0.07565432      0.35392705     -0.03008788     -0.00979398     -0.02104950
    2
 MD step:        2900 time   7.0147645468644999     
 H      0.25316350     -0.01257904     -0.16406813      0.02670047     -0.00295265      0.04774848
 H     -0.27696122     -0.07683884      0.35138120     -0.03009299     -0.00979444     -0.02104579
    2
 MD step:        2950 time   7.1357087631897507     
 H      0.25639436     -0.01293596     -0.15829468      0.02673190     -0.00294917      0.04772096
 H     -0.28060238     -0.07802361      0.34883728     -0.03012442     -0.00979793     -0.02101828
    2
 MD step:        3000 time   7.2566529795150005     
 H      0.25963091     -0.01329231     -0.15252575      0.02679389     -0.00294313      0.04767462
 H     -0.28424924     -0.07920895      0.34629789     -0.03018641     -0.00980397     -0.02097193
    2
 MD step:        3050 time   7.3775971958402504     
 H      0.26287620     -0.01364780     -0.14676323      0.02687378     -0.00293526      0.04761598
 H     -0.28790484     -0.08039515      0.34376490     -0.03026630     -0.00981184     -0.02091329
    2
 MD step:        3100 time   7.4985414121655003     
 H      0.26613150     -0.01400226     -0.14100827      0.02695682     -0.00292623      0.04755062
 H     -0.29157044     -0.08158237      0.34123948     -0.03034934     -0.00982086     -0.02084793
    2
 MD step:        3150 time   7.6194856284907502     
 H      0.26939652     -0.01435561     -0.13526130      0.02703504     -0.00291685      0.04748461
 H     -0.29524577     -0.08277071      0.33872205     -0.03042756     -0.00983025     -0.02078192
    2
 MD step:        3200 time   7.7404298448160000     
 H      0.27267104     -0.01470782     -0.12952216      0.02711507     -0.00290767      0.04742194
 H     -0.29893059     -0.08396019      0.33621244     -0.03050759     -0.00983943     -0.02071925
    2
 MD step:        3250 time   7.8613740611412499     
 H      0.27595551     -0.01505897     -0.12379018      0.02719798     -0.00289936      0.04736688
 H     -0.30262536     -0.08515072      0.33371000     -0.03059049     -0.00984774     -0.02066420
    2
 MD step:        3300 time   7.9823182774665007     
 H      0.27924933     -0.01540922     -0.11806412      0.02726693     -0.00289286      0.04732506
 H     -0.30632949     -0.08634217      0.33121347     -0.03065945     -0.00985424     -0.02062237
    2
 MD step:        3350 time   8.1032624937917497     
 H      0.28254987     -0.01575883     -0.11234211      0.02730649     -0.00288894      0.04730052
 H     -0.31004034     -0.08753425      0.32872099     -0.03069901     -0.00985816     -0.02059783
    2
 MD step:        3400 time   8.2242067101170004     
 H      0.28585303     -0.01610816     -0.10662180      0.02731127     -0.00288842      0.04729736
 H     -0.31375381     -0.08872660      0.32623022     -0.03070379     -0.00985867     -0.02059467
    2
 MD step:        3450 time   8.3451509264422494     
 H      0.28915507     -0.01645766     -0.10090049      0.02728926     -0.00289185      0.04731742
 H     -0.31746615     -0.08991879      0.32373844     -0.03068178     -0.00985525     -0.02061473
    2
 MD step:        3500 time   8.4660951427675002     
 H      0.29245292     -0.01680785     -0.09517525      0.02723967     -0.00289985      0.04736288
 H     -0.32117431     -0.09111029      0.32124274     -0.03063219     -0.00984725     -0.02066019
    2
 MD step:        3550 time   8.5870393590927510     
 H      0.29574216     -0.01715932     -0.08944280      0.02714410     -0.00291326      0.04743679
 H     -0.32487385     -0.09230050      0.31873983     -0.03053662     -0.00983384     -0.02073411
    2
 MD step:        3600 time   8.7079835754179999     
 H      0.29901638     -0.01751277     -0.08369964      0.02698956     -0.00293266      0.04754044
 H     -0.32855837     -0.09348874      0.31622620     -0.03038208     -0.00981444     -0.02083775
    2
 MD step:        3650 time   8.8289277917432507     
 H      0.30226824     -0.01786896     -0.07794208      0.02677620     -0.00295858      0.04767466
 H     -0.33222054     -0.09467424      0.31369818     -0.03016872     -0.00978852     -0.02097197
    2
 MD step:        3700 time   8.9498720080684997     
 H      0.30549130     -0.01822869     -0.07216649      0.02651488     -0.00299126      0.04783856
 H     -0.33585391     -0.09585620      0.31115213     -0.02990740     -0.00975584     -0.02113587
    2
 MD step:        3750 time   9.0708162243937505     
 H      0.30867997     -0.01859279     -0.06636933      0.02620508     -0.00303099      0.04803148
 H     -0.33945289     -0.09703378      0.30858450     -0.02959760     -0.00971611     -0.02132879
    2
 MD step:        3800 time   9.1917604407189994     
 H      0.31182729     -0.01896216     -0.06054703      0.02582853     -0.00307831      0.04825394
 H     -0.34301050     -0.09820610      0.30599174     -0.02922105     -0.00966878     -0.02155125
    2
 MD step:        3850 time   9.3127046570442502     
 H      0.31492458     -0.01933771     -0.05469613      0.02537748     -0.00313340      0.04850446
 H     -0.34651810     -0.09937224      0.30337037     -0.02877000     -0.00961369     -0.02180178
    2
 MD step:        3900 time   9.4336488733695010     
 H      0.31796306     -0.01972041     -0.04881330      0.02485862     -0.00319637      0.04878138
 H     -0.34996689     -0.10053123      0.30071708     -0.02825114     -0.00955073     -0.02207870
    2
 MD step:        3950 time   9.5545930896947500     
 H      0.32093541     -0.02011119     -0.04289552      0.02428538     -0.00326708      0.04908195
 H     -0.35334954     -0.10168213      0.29802883     -0.02767790     -0.00948002     -0.02237926
    2
 MD step:        4000 time   9.6755373060200007     
 H      0.32383527     -0.02051098     -0.03694010      0.02365781     -0.00334542      0.04940365
 H     -0.35665971     -0.10282403      0.29530295     -0.02705033     -0.00940168     -0.02270096
    2
 MD step:        4050 time   9.7964815223452497     
 H      0.32665503     -0.02092073     -0.03094454      0.02295859     -0.00343161      0.04974538
 H     -0.35988978     -0.10395597      0.29253692     -0.02635111     -0.00931549     -0.02304269
    2
 MD step:        4100 time   9.9174257386705005     
 H      0.32938572     -0.02134136     -0.02490658      0.02218596     -0.00352539      0.05010414
 H     -0.36303077     -0.10507703      0.28972850     -0.02557848     -0.00922171     -0.02340145
    2
 MD step:        4150 time   10.038369954995749     
 H      0.33201915     -0.02177377     -0.01882437      0.02135358     -0.00362640      0.05047672
 H     -0.36607450     -0.10618631      0.28687582     -0.02474610     -0.00912070     -0.02377403
    2
 MD step:        4200 time   10.159314171321000     
 H      0.33454908     -0.02221882     -0.01269642      0.02047575     -0.00373422      0.05085987
 H     -0.36901475     -0.10728295      0.28397741     -0.02386827     -0.00901288     -0.02415719
    2
 MD step:        4250 time   10.280258387646251     
 H      0.33697020     -0.02267729     -0.00652166      0.01955235     -0.00384838      0.05125043
 H     -0.37184617     -0.10836616      0.28103219     -0.02294487     -0.00889871     -0.02454774
    2
 MD step:        4300 time   10.401202603971500     
 H      0.33927607     -0.02314995     -0.00029930      0.01856797     -0.00396882      0.05164667
 H     -0.37456234     -0.10943519      0.27803936     -0.02196049     -0.00877828     -0.02494398
    2
 MD step:        4350 time   10.522146820296751     
 H      0.34145922     -0.02363753      0.00597118      0.01752551     -0.00409501      0.05204557
 H     -0.37715580     -0.11048929      0.27499842     -0.02091803     -0.00865209     -0.02534289
    2
 MD step:        4400 time   10.643091036622000     
 H      0.34351374     -0.02414069      0.01228989      0.01644467     -0.00422620      0.05244357
 H     -0.37962063     -0.11152783      0.27190925     -0.01983719     -0.00852090     -0.02574088
    2
 MD step:        4450 time   10.764035252947250     
 H      0.34543602     -0.02465998      0.01865653      0.01533904     -0.00436182      0.05283794
 H     -0.38195321     -0.11255022      0.26877214     -0.01873156     -0.00838527     -0.02613525
    2
 MD step:        4500 time   10.884979469272501     
 H      0.34722297     -0.02519591      0.02507052      0.01420548     -0.00450129      0.05322615
 H     -0.38415047     -0.11355597      0.26558768     -0.01759800     -0.00824581     -0.02652346
    2
 MD step:        4550 time   11.005923685597750     
 H      0.34887055     -0.02574893      0.03153100      0.01303277     -0.00464420      0.05360635
 H     -0.38620835     -0.11454465      0.26235675     -0.01642528     -0.00810290     -0.02690366
    2
 MD step:        4600 time   11.126867901923001     
 H      0.35037409     -0.02631941      0.03803687      0.01182693     -0.00478995      0.05397636
 H     -0.38812220     -0.11551586      0.25908041     -0.01521945     -0.00795714     -0.02727367
    2
 MD step:        4650 time   11.247812118248250     
 H      0.35173097     -0.02690764      0.04458672      0.01061149     -0.00493755      0.05433322
 H     -0.38988938     -0.11646931      0.25576009     -0.01400401     -0.00780955     -0.02763053
    2
 MD step:        4700 time   11.368756334573501     
 H      0.35294108     -0.02751379      0.05117883      0.00939963     -0.00508623      0.05467490
 H     -0.39150980     -0.11740485      0.25239752     -0.01279214     -0.00766087     -0.02797221
    2
 MD step:        4750 time   11.489700550898750     
 H      0.35400441     -0.02813796      0.05781129      0.00818266     -0.00523554      0.05500026
 H     -0.39298343     -0.11832236      0.24899459     -0.01157518     -0.00751156     -0.02829758
    2
 MD step:        4800 time   11.610644767224001     
 H      0.35491990     -0.02878020      0.06448204      0.00695446     -0.00538482      0.05530791
 H     -0.39430923     -0.11922181      0.24555338     -0.01034697     -0.00736228     -0.02860522
    2
 MD step:        4850 time   11.731588983549251     
 H      0.35568650     -0.02944046      0.07118888      0.00572410     -0.00553342      0.05559672
 H     -0.39548613     -0.12010324      0.24207608     -0.00911662     -0.00721368     -0.02889403
    2
 MD step:        4900 time   11.852533199874500     
 H      0.35630537     -0.03011861      0.07792943      0.00451516     -0.00568039      0.05586517
 H     -0.39651531     -0.12096678      0.23856506     -0.00790767     -0.00706671     -0.02916249
    2
 MD step:        4950 time   11.973477416199751     
 H      0.35678005     -0.03081438      0.08470115      0.00333918     -0.00582485      0.05611224
 H     -0.39740029     -0.12181270      0.23502287     -0.00673170     -0.00692224     -0.02940956
    2
 MD step:        5000 time   12.094421632525000     
 H      0.35711385     -0.03152746      0.09150148      0.00218309     -0.00596654      0.05633811
 H     -0.39814440     -0.12264131      0.23145209     -0.00557561     -0.00678056     -0.02963542
    2
 MD step:        5050 time   12.215365848850251     
 H      0.35730875     -0.03225748      0.09832782      0.00104323     -0.00610477      0.05654246
 H     -0.39874961     -0.12345298      0.22785528     -0.00443574     -0.00664233     -0.02983978
    2
 MD step:        5100 time   12.336310065175500     
 H      0.35736738     -0.03300396      0.10517757     -0.00006670     -0.00623879      0.05672513
 H     -0.39921854     -0.12424818      0.22423506     -0.00332581     -0.00650830     -0.03002244
    2
 MD step:        5150 time   12.457254281500751     
 H      0.35729470     -0.03376637      0.11204810     -0.00112555     -0.00636784      0.05688612
 H     -0.39955617     -0.12502746      0.22059407     -0.00226697     -0.00637925     -0.03018343
    2
 MD step:        5200 time   12.578198497826001     
 H      0.35709750     -0.03454404      0.11893680     -0.00212646     -0.00649117      0.05702575
 H     -0.39976927     -0.12579148      0.21693490     -0.00126606     -0.00625593     -0.03032306
    2
 MD step:        5250 time   12.699142714151250     
 H      0.35678206     -0.03533627      0.12584115     -0.00308382     -0.00660858      0.05714512
 H     -0.39986414     -0.12654093      0.21326009     -0.00030869     -0.00613852     -0.03044243
    2
 MD step:        5300 time   12.820086930476501     
 H      0.35635312     -0.03614232      0.13275877     -0.00400173     -0.00671967      0.05724525
 H     -0.39984550     -0.12727657      0.20957201      0.00060922     -0.00602742     -0.03054256
    2
 MD step:        5350 time   12.941031146801750     
 H      0.35581636     -0.03696140      0.13968738     -0.00486312     -0.00682375      0.05732701
 H     -0.39971904     -0.12799918      0.20587294      0.00147060     -0.00592335     -0.03062432
    2
 MD step:        5400 time   13.061975363127001     
 H      0.35517980     -0.03779261      0.14662482     -0.00565069     -0.00692031      0.05739168
 H     -0.39949280     -0.12870966      0.20216502      0.00225817     -0.00582678     -0.03068900
    2
 MD step:        5450 time   13.182919579452250     
 H      0.35445247     -0.03863502      0.15356913     -0.00636537     -0.00700903      0.05744079
 H     -0.39917577     -0.12940893      0.19845025      0.00297285     -0.00573807     -0.03073811
    2
 MD step:        5500 time   13.303863795777501     
 H      0.35364241     -0.03948769      0.16051853     -0.00702212     -0.00708986      0.05747612
 H     -0.39877602     -0.13009795      0.19473039      0.00362960     -0.00565724     -0.03077343
    2
 MD step:        5550 time   13.424808012102751     
 H      0.35275602     -0.04034966      0.16747146     -0.00762572     -0.00716281      0.05749946
 H     -0.39829993     -0.13077767      0.19100700      0.00423320     -0.00558429     -0.03079678
    2
 MD step:        5600 time   13.545752228428000     
 H      0.35180067     -0.04121996      0.17442657     -0.00815885     -0.00722742      0.05751256
 H     -0.39775489     -0.13144906      0.18728142      0.00476633     -0.00551967     -0.03080987
    2
 MD step:        5650 time   13.666696444753251     
 H      0.35078587     -0.04209755      0.18138275     -0.00860910     -0.00728356      0.05751732
 H     -0.39715040     -0.13211315      0.18355478      0.00521659     -0.00546353     -0.03081463
    2
 MD step:        5700 time   13.787640661078500     
 H      0.34972118     -0.04298143      0.18833909     -0.00898610     -0.00733146      0.05751571
 H     -0.39649601     -0.13277096      0.17982797      0.00559358     -0.00541564     -0.03081303
    2
 MD step:        5750 time   13.908584877403751     
 H      0.34861452     -0.04387062      0.19529495     -0.00930636     -0.00737143      0.05750961
 H     -0.39579965     -0.13342346      0.17610165      0.00591384     -0.00537567     -0.03080693
    2
 MD step:        5800 time   14.029529093729000     
 H      0.34747212     -0.04476420      0.20224989     -0.00957531     -0.00740392      0.05750077