    2
 MD step:           0 time   0.0000000000000000     
 H      0.00000000      0.00000000     -0.37000000      0.00256042     -0.02708672     -0.00715144
 H      0.00000000      0.00000000      0.37000000      0.00637314     -0.02707911      0.03975455
    2
 MD step:          50 time  0.12094421632525000     
 H      0.00030961     -0.00327604     -0.37086697      0.00255941     -0.02708775     -0.00714598
 H      0.00077085     -0.00327501      0.37481013      0.00637415     -0.02707809      0.03974909
    2
 MD step:         100 time  0.24188843265050000     
 H      0.00061916     -0.00655215     -0.37171894      0.00255926     -0.02708813     -0.00690380
 H      0.00154176     -0.00654994      0.37960525      0.00637430     -0.02707770      0.03950690
    2
 MD step:         150 time  0.36283264897575002     
 H      0.00092876     -0.00982827     -0.37252777      0.00256036     -0.02708775     -0.00643459
 H      0.00231263     -0.00982486      0.38435724      0.00637319     -0.02707808      0.03903770
    2
 MD step:         200 time  0.48377686530100000     
 H      0.00123855     -0.01310433     -0.37326676      0.00256257     -0.02708701     -0.00575108
 H      0.00308330     -0.01309985      0.38903938      0.00637099     -0.02707883      0.03835419
    2
 MD step:         250 time  0.60472108162625005     
 H      0.00154865     -0.01638031     -0.37391081      0.00256567     -0.02708630     -0.00486722
 H      0.00385366     -0.01637491      0.39362660      0.00636788     -0.02707953      0.03747033
    2
 MD step:         300 time  0.72566529795150003     
 H      0.00185916     -0.01965623     -0.37443659      0.00256948     -0.02708601     -0.00379745
 H      0.00462361     -0.01965003      0.39809553      0.00636407     -0.02707982      0.03640056
    2
 MD step:         350 time  0.84660951427675002     
 H      0.00217015     -0.02293218     -0.37482249      0.00257372     -0.02708656     -0.00255688
 H      0.00539309     -0.02292512      0.40242459      0.00635983     -0.02707927      0.03515999
    2
 MD step:         400 time  0.96755373060200001     
 H      0.00248170     -0.02620823     -0.37504882      0.00257844     -0.02708802     -0.00116117
 H      0.00616199     -0.02620013      0.40659407      0.00635512     -0.02707781      0.03376427
    2
 MD step:         450 time   1.0884979469272500     
 H      0.00279394     -0.02948442     -0.37509774      0.00258437     -0.02708973      0.00037400
 H      0.00693022     -0.02947498      0.41058616      0.00634919     -0.02707610      0.03222910
    2
 MD step:         500 time   1.2094421632525001     
 H      0.00310698     -0.03276083     -0.37495338      0.00259213     -0.02709115      0.00203260
 H      0.00769764     -0.03274961      0.41438495      0.00634143     -0.02707468      0.03057050
    2
 MD step:         550 time   1.3303863795777500     
 H      0.00342099     -0.03603748     -0.37460172      0.00260136     -0.02709266      0.00379939
 H      0.00846409     -0.03602401      0.41797644      0.00633220     -0.02707317      0.02880372
    2
 MD step:         600 time   1.4513305959030001     
 H      0.00373618     -0.03931433     -0.37403063      0.00261172     -0.02709460      0.00565854
 H      0.00922936     -0.03929820      0.42134851      0.00632184     -0.02707123      0.02694457
    2
 MD step:         650 time   1.5722748122282502     
 H      0.00405279     -0.04259135     -0.37322987      0.00262390     -0.02709628      0.00759494
 H      0.00999321     -0.04257222      0.42449091      0.00630965     -0.02706956      0.02500816
    2
 MD step:         700 time   1.6932190285535000     
 H      0.00437103     -0.04586851     -0.37219100      0.00263847     -0.02709708      0.00959349
 H      0.01075544     -0.04584611      0.42739519      0.00629509     -0.02706875      0.02300962
    2
 MD step:         750 time   1.8141632448787501     
 H      0.00469109     -0.04914580     -0.37090742      0.00265470     -0.02709767      0.01163915
 H      0.01151584     -0.04911986      0.43005477      0.00627885     -0.02706816      0.02096395
    2
 MD step:         800 time   1.9351074612040000     
 H      0.00501317     -0.05242318     -0.36937431      0.00267188     -0.02709869      0.01371738
 H      0.01227422     -0.05239353      0.43246482      0.00626168     -0.02706715      0.01888573
    2
 MD step:         850 time   2.0560516775292501     
 H      0.00533746     -0.05570064     -0.36758862      0.00269041     -0.02709961      0.01581356
 H      0.01303040     -0.05566711      0.43462229      0.00624315     -0.02706622      0.01678955
    2
 MD step:         900 time   2.1769958938545000     
 H      0.00566405     -0.05897822     -0.36554906      0.00271039     -0.02710023      0.01791308
 H      0.01378427     -0.05894058      0.43652588      0.00622317     -0.02706560      0.01469003
    2
 MD step:         950 time   2.2979401101797499     
 H      0.00599302     -0.06225596     -0.36325609      0.00273061     -0.02710161      0.02000167
 H      0.01453575     -0.06221388      0.43817607      0.00620294     -0.02706422      0.01260143
    2
 MD step:        1000 time   2.4188843265050002     
 H      0.00632447     -0.06553389     -0.36071191      0.00275047     -0.02710418      0.02206472
 H      0.01528477     -0.06548699      0.43957505      0.00618308     -0.02706166      0.01053838
    2
 MD step:        1050 time   2.5398285428302501     
 H      0.00665844     -0.06881206     -0.35792052      0.00277099     -0.02710673      0.02408744
 H      0.01603126     -0.06875986      0.44072681      0.00616257     -0.02705911      0.00851566
    2
 MD step:        1100 time   2.6607727591554999     
 H      0.00699489     -0.07209057     -0.35488764      0.00279246     -0.02710875      0.02605547
 H      0.01677527     -0.07203240      0.44163709      0.00614110     -0.02705708      0.00654764
    2
 MD step:        1150 time   2.7817169754807503     
 H      0.00733380     -0.07536946     -0.35162083      0.00281331     -0.02711157      0.02795327
 H      0.01751682     -0.07530455      0.44231344      0.00612025     -0.02705426      0.00464983
    2
 MD step:        1200 time   2.9026611918060001     
 H      0.00767520     -0.07864874     -0.34812949      0.00283284     -0.02711563      0.02976614
 H      0.01825589     -0.07857632      0.44276525      0.00610072     -0.02705020      0.00283696
    2
 MD step:        1250 time   3.0236054081312500     
 H      0.00801907     -0.08192837     -0.34442480      0.00285247     -0.02711922      0.03147852
 H      0.01899248     -0.08184774      0.44300372      0.00608109     -0.02704662      0.00112458
    2
 MD step:        1300 time   3.1445496244565003     
 H      0.00836535     -0.08520835     -0.34051989      0.00287292     -0.02712127      0.03307466
 H      0.01972665     -0.08511879      0.44304196      0.00606063     -0.02704456     -0.00047156
    2
 MD step:        1350 time   3.2654938407817502     
 H      0.00871398     -0.08848867     -0.33642971      0.00289273     -0.02712294      0.03453938
 H      0.02045849     -0.08838953      0.44289495      0.00604082     -0.02704290     -0.00193627
    2
 MD step:        1400 time   3.3864380571070001     
 H      0.00906490     -0.09176920     -0.33217116      0.00291074     -0.02712497      0.03585638
 H      0.02118803     -0.09166004      0.44257956      0.00602282     -0.02704086     -0.00325328
    2
 MD step:        1450 time   3.5073822734322500     
 H      0.00941799     -0.09504987     -0.32776305      0.00292750     -0.02712643      0.03701017
 H      0.02191540     -0.09493041      0.44211459      0.00600606     -0.02703940     -0.00440707
    2
 MD step:        1500 time   3.6283264897575003     
 H      0.00977302     -0.09833068     -0.32322603      0.00294285     -0.02712703      0.03798533
 H      0.02264083     -0.09820065      0.44152074      0.00599071     -0.02703880     -0.00538223
    2
 MD step:        1550 time   3.7492707060827501     
 H      0.01012965     -0.10161165     -0.31858263      0.00295477     -0.02712834      0.03876693
 H      0.02336466     -0.10147072      0.44082050      0.00597878     -0.02703749     -0.00616383
    2
 MD step:        1600 time   3.8702149224080000     
 H      0.01048750     -0.10489283     -0.31385713      0.00296204     -0.02713113      0.03934081
 H      0.02408728     -0.10474058      0.44003815      0.00597151     -0.02703471     -0.00673771
    2
 MD step:        1650 time   3.9911591387332503     
 H      0.01084607     -0.10817428     -0.30907545      0.00296542     -0.02713413      0.03969371
 H      0.02480918     -0.10801018      0.43919963      0.00596813     -0.02703170     -0.00709060
    2
 MD step:        1700 time   4.1121033550585002     
 H      0.01120478     -0.11145612     -0.30426509      0.00296518     -0.02713661      0.03981343
 H      0.02553093     -0.11127938      0.43833242      0.00596837     -0.02702923     -0.00721032
    2
 MD step:        1750 time   4.2330475713837501     
 H      0.01156307     -0.11473836     -0.29945481      0.00296014     -0.02713926      0.03969081
 H      0.02625309     -0.11454818      0.43746530      0.00597341     -0.02702658     -0.00708771
    2
 MD step:        1800 time   4.3539917877090000     
 H      0.01192046     -0.11802092     -0.29467445      0.00294985     -0.02714207      0.03931745
 H      0.02697616     -0.11781667      0.43662810      0.00598371     -0.02702376     -0.00671435
    2
 MD step:        1850 time   4.4749360040342498     
 H      0.01227642     -0.12130368     -0.28995468      0.00293511     -0.02714382      0.03868827
 H      0.02770067     -0.12108495      0.43585149      0.00599845     -0.02702201     -0.00608516
    2
 MD step:        1900 time   4.5958802203594997     
 H      0.01263028     -0.12458662     -0.28532661      0.00291538     -0.02714467      0.03780118
 H      0.02842727     -0.12435306      0.43516657      0.00601818     -0.02702117     -0.00519807
    2
 MD step:        1950 time   4.7168244366847505     
 H      0.01298126     -0.12786977     -0.28082135      0.00288825     -0.02714671      0.03665776
 H      0.02915675     -0.12762095      0.43460447      0.00604531     -0.02701913     -0.00405466
    2
 MD step:        2000 time   4.8377686530100004     
 H      0.01332850     -0.13115324     -0.27646963      0.00285273     -0.02715071      0.03526358
 H      0.02988997     -0.13088853      0.43419591      0.00608083     -0.02701512     -0.00266047
    2
 MD step:        2050 time   4.9587128693352502     
 H      0.01367112     -0.13443713     -0.27230121      0.00281061     -0.02715477      0.03362865
 H      0.03062782     -0.13415568      0.43397064      0.00612295     -0.02701106     -0.00102555
    2
 MD step:        2100 time   5.0796570856605001     
 H      0.01400829     -0.13772147     -0.26834438      0.00276340     -0.02715738      0.03176748
 H      0.03137111     -0.13742238      0.43395696      0.00617015     -0.02700845      0.00083562
    2
 MD step:        2150 time   5.2006013019857500     
 H      0.01433932     -0.14100616     -0.26462534      0.00271041     -0.02715942      0.02969986
 H      0.03212054     -0.14068874      0.43418109      0.00622315     -0.02700642      0.00290325
    2
 MD step:        2200 time   5.3215455183109999     
 H      0.01466358     -0.14429110     -0.26116770      0.00265059     -0.02716220      0.02744942
 H      0.03287674     -0.14395485      0.43466660      0.00628297     -0.02700363      0.00515369
    2
 MD step:        2250 time   5.4424897346362506     
 H      0.01498028     -0.14757634     -0.25799190      0.00258441     -0.02716573      0.02504412
 H      0.03364050     -0.14722064      0.43543395      0.00634915     -0.02700011      0.00755898
    2
 MD step:        2300 time   5.5634339509615005     
 H      0.01528859     -0.15086210     -0.25511475      0.00251290     -0.02716960      0.02251623
 H      0.03441265     -0.15048593      0.43649997      0.00642066     -0.02699623      0.01008687
    2
 MD step:        2350 time   5.6843781672867504     
 H      0.01558788     -0.15414843     -0.25254904      0.00243686     -0.02717379      0.01990024
 H      0.03519383     -0.15375064      0.43787741      0.00649669     -0.02699204      0.01270287
    2
 MD step:        2400 time   5.8053223836120003     
 H      0.01587781     -0.15743523     -0.25030315      0.00235778     -0.02717774      0.01723377
 H      0.03598436     -0.15701489      0.43957468      0.00657578     -0.02698810      0.01536933
    2
 MD step:        2450 time   5.9262665999372501     
 H      0.01615816     -0.16072236     -0.24838089      0.00227726     -0.02718085      0.01455487
 H      0.03678447     -0.16027880      0.44159557      0.00665630     -0.02698498      0.01804823
    2
 MD step:        2500 time   6.0472108162625000     
 H      0.01642863     -0.16400993     -0.24678145      0.00219534     -0.02718422      0.01190183
 H      0.03759446     -0.16354228      0.44393929      0.00673821     -0.02698162      0.02070127
    2
 MD step:        2550 time   6.1681550325877499     
 H      0.01668900     -0.16729810     -0.24549938      0.00211167     -0.02718940      0.00931298
 H      0.03841456     -0.16680516      0.44660038      0.00682189     -0.02697644      0.02329013
    2
 MD step:        2600 time   6.2890992489130007     
 H      0.01693930     -0.17058690     -0.24452470      0.00202844     -0.02719540      0.00682450
 H      0.03924472     -0.17006740      0.44956886      0.00690511     -0.02697043      0.02577860
    2
 MD step:        2650 time   6.4100434652382505     
 H      0.01717987     -0.17387624     -0.24384318      0.00194948     -0.02719966      0.00447061
 H      0.04008461     -0.17332910      0.45283050      0.00698408     -0.02696617      0.02813249
    2
 MD step:        2700 time   6.5309876815635004     
 H      0.01741115     -0.17716604     -0.24343665      0.00187577     -0.02720238      0.00228193
 H      0.04093379     -0.17659034      0.45636712      0.00705779     -0.02696345      0.03032118
    2
 MD step:        2750 time   6.6519318978887503     
 H      0.01763365     -0.18045632     -0.24328349      0.00180543     -0.02720654      0.00028475
 H      0.04179176     -0.17985111      0.46015712      0.00712812     -0.02695929      0.03231835
    2
 MD step:        2800 time   6.7728761142140002     
 H      0.01784792     -0.18374717     -0.24335915      0.00173876     -0.02721292     -0.00149849
 H      0.04265794     -0.18311131      0.46417593      0.00719480     -0.02695292      0.03410159
    2
 MD step:        2850 time   6.8938203305392500     
 H      0.01805466     -0.18703866     -0.24363660      0.00167936     -0.02721879     -0.00304979
 H      0.04353167     -0.18637085      0.46839654      0.00725419     -0.02694704      0.03565290
    2
 MD step:        2900 time   7.0147645468644999     
 H      0.01825469     -0.19033083     -0.24408700      0.00162952     -0.02722269     -0.00435650
 H      0.04441210     -0.18962973      0.47279009      0.00730404     -0.02694314      0.03695960
    2
 MD step:        2950 time   7.1357087631897507     
 H      0.01844910     -0.19362357     -0.24468016      0.00158809     -0.02722638     -0.00540975
 H      0.04529815     -0.19288804      0.47732642      0.00734547     -0.02693945      0.03801285
    2
 MD step:        3000 time   7.2566529795150005     
 H      0.01863905     -0.19691671     -0.24538519      0.00155451     -0.02723092     -0.00620590
 H      0.04618866     -0.19614594      0.48197460      0.00737904     -0.02693491      0.03880900
    2
 MD step:        3050 time   7.3775971958402504     
 H      0.01882562     -0.20021027     -0.24617093      0.00153052     -0.02723491     -0.00674476
 H      0.04708256     -0.19940342      0.48670350      0.00740303     -0.02693092      0.03934786
    2
 MD step:        3100 time   7.4985414121655003     
 H      0.01900976     -0.20350441     -0.24700640      0.00151623     -0.02723848     -0.00702912
 H      0.04797888     -0.20266033      0.49148213      0.00741733     -0.02692735      0.03963222
    2
 MD step:        3150 time   7.6194856284907502     
 H      0.01919249     -0.20679921     -0.24786122      0.00150933     -0.02724397     -0.00706612
 H      0.04887661     -0.20591657      0.49628010      0.00742422     -0.02692187      0.03966922
    2
 MD step:        3200 time   7.7404298448160000     
 H      0.01937498     -0.21009465     -0.24870596      0.00151019     -0.02725102     -0.00686363
 H      0.04977459     -0.20917217      0.50106800      0.00742337     -0.02691481      0.03946674
    2
 MD step:        3250 time   7.8613740611412499     
 H      0.01955839     -0.21339068     -0.24951223      0.00152218     -0.02725613     -0.00643214
 H      0.05067163     -0.21242719      0.50581742      0.00741137     -0.02690970      0.03903525
    2
 MD step:        3300 time   7.9823182774665007     
 H      0.01974383     -0.21668730     -0.25025311      0.00154562     -0.02725874     -0.00578457
 H      0.05156665     -0.21568162      0.51050147      0.00738793     -0.02690709      0.03838767
    2
 MD step:        3350 time   8.1032624937917497     
 H      0.01993244     -0.21998443     -0.25090326      0.00157679     -0.02726229     -0.00493395
 H      0.05245851     -0.21893553      0.51509477      0.00735677     -0.02690354      0.03753705
    2
 MD step:        3400 time   8.2242067101170004     
 H      0.02012536     -0.22328195     -0.25143900      0.00161461     -0.02726746     -0.00389528
 H      0.05334605     -0.22218906      0.51957366      0.00731895     -0.02689837      0.03649839
    2
 MD step:        3450 time   8.3451509264422494     
 H      0.02032356     -0.22657986     -0.25183853      0.00166182     -0.02727109     -0.00268388
 H      0.05422831     -0.22544219      0.52391635      0.00727174     -0.02689475      0.03528698
    2
 MD step:        3500 time   8.4660951427675002     
 H      0.02052782     -0.22987832     -0.25208183      0.00171765     -0.02727349     -0.00131455
 H      0.05510451     -0.22869478      0.52810281      0.00721590     -0.02689235      0.03391765
    2
 MD step:        3550 time   8.5870393590927510     
 H      0.02073892     -0.23317740     -0.25215081      0.00177730     -0.02727891      0.00019587
 H      0.05597388     -0.23194674      0.53211495      0.00715625     -0.02688692      0.03240723
    2
 MD step:        3600 time   8.7079835754179999     
 H      0.02095768     -0.23647707     -0.25202937      0.00184056     -0.02728706      0.00183222
 H      0.05683557     -0.23519811      0.53593667      0.00709300     -0.02687877      0.03077088
    2
 MD step:        3650 time   8.8289277917432507     
 H      0.02118478     -0.23977741     -0.25170317      0.00191188     -0.02729293      0.00357919
 H      0.05768894     -0.23844882      0.53955362      0.00702168     -0.02687290      0.02902392
    2
 MD step:        3700 time   8.9498720080684997     
 H      0.02142070     -0.24307857     -0.25115984      0.00199064     -0.02729651      0.00542009
 H      0.05853348     -0.24169870      0.54295345      0.00694291     -0.02686932      0.02718302
    2
 MD step:        3750 time   9.0708162243937505     
 H      0.02166603     -0.24638056     -0.25038885      0.00207114     -0.02730299      0.00734147
 H      0.05936861     -0.24494775      0.54612561      0.00686241     -0.02686285      0.02526163
    2
 MD step:        3800 time   9.1917604407189994     
 H      0.02192145     -0.24968324     -0.24938142      0.00215305     -0.02731204      0.00932719
 H      0.06019366     -0.24819612      0.54906134      0.00678051     -0.02685379      0.02327591
    2
 MD step:        3850 time   9.3127046570442502     
 H      0.02218742     -0.25298658     -0.24813074      0.00224157     -0.02731781      0.01136218
 H      0.06100815     -0.25144383      0.55175381      0.00669198     -0.02684803      0.02124092
    2
 MD step:        3900 time   9.4336488733695010     
 H      0.02246419     -0.25629068     -0.24663160      0.00233597     -0.02732047      0.01343293
 H      0.06181183     -0.25469077      0.55419784      0.00659759     -0.02684536      0.01917017
    2
 MD step:        3950 time   9.5545930896947500     
 H      0.02275211     -0.25959552     -0.24488067      0.00242952     -0.02732601      0.01552345
 H      0.06260438     -0.25793697      0.55639006      0.00650403     -0.02683982      0.01707966
    2
 MD step:        4000 time   9.6755373060200007     
 H      0.02305154     -0.26290091     -0.24287640      0.00252187     -0.02733417      0.01762032
 H      0.06338541     -0.26118262      0.55832894      0.00641168     -0.02683167      0.01498278
    2
 MD step:        4050 time   9.7964815223452497     
 H      0.02336262     -0.26620686     -0.24061886      0.00261824     -0.02733902      0.01970898
 H      0.06415479     -0.26442772      0.56001456      0.00631531     -0.02682681      0.01289413
    2
 MD step:        4100 time   9.9174257386705005     
 H      0.02368523     -0.26951354     -0.23811000      0.00271710     -0.02734131      0.02177368
 H      0.06491265     -0.26767209      0.56144886      0.00621645     -0.02682452      0.01082943
    2
 MD step:        4150 time   10.038369954995749     
 H      0.02401931     -0.27282093     -0.23535351      0.00281156     -0.02734729      0.02380169
 H      0.06565903     -0.27091574      0.56263553      0.00612200     -0.02681854      0.00880142
    2
 MD step:        4200 time   10.159314171321000     
 H      0.02436486     -0.27612892     -0.23235476      0.00290156     -0.02735618      0.02577718
 H      0.06639394     -0.27415879      0.56357993      0.00603199     -0.02680965      0.00682592
    2
 MD step:        4250 time   10.280258387646251     
 H      0.02472159     -0.27943755     -0.22912106      0.00299255     -0.02736172      0.02768485
 H      0.06711767     -0.27740121      0.56428939      0.00594100     -0.02680412      0.00491825
    2
 MD step:        4300 time   10.401202603971500     
 H      0.02508900     -0.28274700     -0.22566140      0.00308298     -0.02736468      0.02951110
 H      0.06783073     -0.28064280      0.56477288      0.00585057     -0.02680116      0.00309200
    2
 MD step:        4350 time   10.522146820296751     
 H      0.02546664     -0.28605727     -0.22198663      0.00316587     -0.02737110      0.03123904
 H      0.06853354     -0.28388358      0.56504127      0.00576769     -0.02679474      0.00136406
    2
 MD step:        4400 time   10.643091036622000     
 H      0.02585417     -0.28936817     -0.21810955      0.00324138     -0.02737996      0.03285460
 H      0.06922648     -0.28712372      0.56510735      0.00569217     -0.02678587     -0.00025149
    2
 MD step:        4450 time   10.764035252947250     
 H      0.02625094     -0.29267968     -0.21404465      0.00331472     -0.02738514      0.03434202
 H      0.06991017     -0.29036325      0.56498561      0.00561883     -0.02678069     -0.00173891
    2
 MD step:        4500 time   10.884979469272501     
 H      0.02665611     -0.29599189     -0.20980846      0.00338424     -0.02738724      0.03568460
 H      0.07058546     -0.29360209      0.56469258      0.00554931     -0.02677859     -0.00308149
    2
 MD step:        4550 time   11.005923685597750     
 H      0.02706887     -0.29930471     -0.20541935      0.00344356     -0.02739173      0.03686822
 H      0.07125316     -0.29684032      0.56424662      0.00549000     -0.02677410     -0.00426511
    2
 MD step:        4600 time   11.126867901923001     
 H      0.02748840     -0.30261795     -0.20089754      0.00349211     -0.02739811      0.03787631
 H      0.07191410     -0.30007812      0.56366797      0.00544145     -0.02676772     -0.00527320
    2
 MD step:        4650 time   11.247812118248250     
 H      0.02791353     -0.30593164     -0.19626520      0.00353328     -0.02740196      0.03869385
 H      0.07256943     -0.30331547      0.56297878      0.00540028     -0.02676388     -0.00609075
    2
 MD step:        4700 time   11.368756334573501     
 H      0.02834282     -0.30924596     -0.19154617      0.00356456     -0.02740481      0.03930727
 H      0.07322059     -0.30655220      0.56220291      0.00536900     -0.02676102     -0.00670417
    2
 MD step:        4750 time   11.489700550898750     
 H      0.02877481     -0.31256101     -0.18676604      0.00357985     -0.02741171      0.03970180
 H      0.07386907     -0.30978819      0.56136594      0.00535370     -0.02675413     -0.00709870
    2
 MD step:        4800 time   11.610644767224001     
 H      0.02920794     -0.31587682     -0.18195204      0.00357932     -0.02742156      0.03986599
 H      0.07451640     -0.31302342      0.56049510      0.00535423     -0.02674427     -0.00726288
    2
 MD step:        4850 time   11.731588983549251     
 H      0.02964045     -0.31919357     -0.17713260      0.00356692     -0.02742959      0.03979003
 H      0.07516436     -0.31625772      0.55961882      0.00536664     -0.02673624     -0.00718693
    2
 MD step:        4900 time   11.852533199874500     
 H      0.03007042     -0.32251145     -0.17233735      0.00354126     -0.02743634      0.03946495
 H      0.07581484     -0.31949088      0.55876672      0.00539230     -0.02672949     -0.00686184
    2
 MD step:        4950 time   11.973477416199751     
 H      0.03049608     -0.32583045     -0.16759671      0.00349794     -0.02744565      0.03888628
 H      0.07646965     -0.32272292      0.55796923      0.00543562     -0.02672019     -0.00628318
    2
 MD step:        5000 time   12.094421632525000     
 H      0.03091566     -0.32915048     -0.16294158      0.00343718     -0.02745674      0.03805050
 H      0.07713053     -0.32595394      0.55725726      0.00549638     -0.02670909     -0.00544740
    2
 MD step:        5050 time   12.215365848850251     
 H      0.03132711     -0.33247166     -0.15840307      0.00336161     -0.02746671      0.03695840
 H      0.07779954     -0.32918380      0.55666191      0.00557195     -0.02669912     -0.00435529
    2
 MD step:        5100 time   12.336310065175500     
 H      0.03172820     -0.33579430     -0.15401189      0.00326914     -0.02747759      0.03561521
 H      0.07847891     -0.33241220      0.55621389      0.00566441     -0.02668824     -0.00301211
    2
 MD step:        5150 time   12.457254281500751     
 H      0.03211676     -0.33911866     -0.14979796      0.00315616     -0.02749316      0.03402897
 H      0.07917082     -0.33563890      0.55594312      0.00577739     -0.02667268     -0.00142587
    2
 MD step:        5200 time   12.578198497826001     
 H      0.03249076     -0.34244484     -0.14578988      0.00302538     -0.02751126      0.03221437
 H      0.07987727     -0.33886375      0.55587819      0.00590817     -0.02665457      0.00038873
    2
 MD step:        5250 time   12.699142714151250     
 H      0.03284831     -0.34577298     -0.14201413      0.00288231     -0.02752726      0.03019027
 H      0.08060019     -0.34208666      0.55604559      0.00605125     -0.02663857      0.00241283
    2
 MD step:        5300 time   12.820086930476501     
 H      0.03318760     -0.34910319     -0.13849475      0.00272670     -0.02754250      0.02797908
 H      0.08134136     -0.34530749      0.55646937      0.00620686     -0.02662333      0.00462403
    2
 MD step:        5350 time   12.941031146801750     
 H      0.03350702     -0.35243557     -0.13525274      0.00255527     -0.02756177      0.02560845
 H      0.08210240     -0.34852616      0.55717052      0.00637829     -0.02660406      0.00699466
    2
 MD step:        5400 time   13.061975363127001     
 H      0.03380507     -0.35577028     -0.13230556      0.00237026     -0.02758457      0.02310890
 H      0.08288482     -0.35174249      0.55816650      0.00656330     -0.02658126      0.00949421
    2
 MD step:        5450 time   13.182919579452250     
 H      0.03408037     -0.35910762     -0.12966679      0.00217812     -0.02760651      0.02051459
 H      0.08368998     -0.35495619      0.55947089      0.00675544     -0.02655932      0.01208851
    2
 MD step:        5500 time   13.303863795777501     
 H      0.03433191     -0.36244777     -0.12734560      0.00198152     -0.02762728      0.01786354
 H      0.08451890     -0.35816709      0.56109285      0.00695204     -0.02653855      0.01473956
    2
 MD step:        5550 time   13.424808012102751     
 H      0.03455925     -0.36579064     -0.12534661      0.00177968     -0.02765007      0.01519287
 H      0.08537202     -0.36137526      0.56303701      0.00715387     -0.02651576      0.01741023
    2
 MD step:        5600 time   13.545752228428000     
 H      0.03476222     -0.36913616     -0.12366986      0.00157542     -0.02767466      0.01254112
 H      0.08624951     -0.36458079      0.56530342      0.00735814     -0.02649117      0.02006198
    2
 MD step:        5650 time   13.666696444753251     
 H      0.03494072     -0.37248450     -0.12231075      0.00137417     -0.02769822      0.00994628
 H      0.08715147     -0.36778349      0.56788748      0.00755938     -0.02646761      0.02265682
    2
 MD step:        5700 time   13.787640661078500     
 H      0.03509491     -0.37583592     -0.12126023      0.00117794     -0.02772133      0.00744420
 H      0.08807774     -0.37098312      0.57078011      0.00775561     -0.02644450      0.02515891
    2
 MD step:        5750 time   13.908584877403751     
 H      0.03522557     -0.37919034     -0.12050489      0.00098731     -0.02774607      0.00507088
 H      0.08902754     -0.37417974      0.57396792      0.00794625     -0.02641976      0.02753222
    2
 MD step:        5800 time   14.029529093729000     
 H      0.03533400     -0.38254749     -0.12002722      0.00080678     -0.02777028      0.00285691