    2
 MD step:           0 time   0.0000000000000000     
 H      0.00000000      0.00000000     -0.37000000      0.05212223     -0.00161302     -0.01117746
 H      0.00000000      0.00000000      0.37000000      0.00793313     -0.00933052      0.02085422
    2
 MD step:          50 time  0.12094421632525000     
 H      0.00630388     -0.00019509     -0.37135544      0.05212218     -0.00161308     -0.01120997
 H      0.00095947     -0.00112847      0.37252578      0.00793318     -0.00933045      0.02088673
    2
 MD step:         100 time  0.24188843265050000     
 H      0.01260774     -0.00039015     -0.37270486      0.05212155     -0.00161246     -0.01107737
 H      0.00191896     -0.00225696      0.37504556      0.00793381     -0.00933107      0.02075413
    2
 MD step:         150 time  0.36283264897575002     
 H      0.01891134     -0.00058514     -0.37402837      0.05211755     -0.00161204     -0.01078230
 H      0.00287871     -0.00338553      0.37753942      0.00793782     -0.00933149      0.02045906
    2
 MD step:         200 time  0.48377686530100000     
 H      0.02521417     -0.00078009     -0.37530665      0.05210829     -0.00161196     -0.01033028
 H      0.00383923     -0.00451414      0.37998804      0.00794707     -0.00933157      0.02000704
    2
 MD step:         250 time  0.60472108162625005     
 H      0.03151534     -0.00097519     -0.37652110      0.05208958     -0.00161483     -0.00972816
 H      0.00480141     -0.00564260      0.38237284      0.00796579     -0.00932870      0.01940492
    2
 MD step:         300 time  0.72566529795150003     
 H      0.03781363     -0.00117078     -0.37765405      0.05206090     -0.00161972     -0.00898404
 H      0.00576646     -0.00677056      0.38467614      0.00799446     -0.00932381      0.01866080
    2
 MD step:         350 time  0.84660951427675002     
 H      0.04410792     -0.00136696     -0.37868887      0.05202348     -0.00162420     -0.00810688
 H      0.00673552     -0.00789794      0.38688131      0.00803188     -0.00931933      0.01778364
    2
 MD step:         400 time  0.96755373060200001     
 H      0.05039710     -0.00156365     -0.37961003      0.05197585     -0.00162868     -0.00710615
 H      0.00770969     -0.00902480      0.38897282      0.00807951     -0.00931486      0.01678291
    2
 MD step:         450 time   1.0884979469272500     
 H      0.05667976     -0.00176098     -0.38040320      0.05191522     -0.00163513     -0.00599203
 H      0.00869038     -0.01015103      0.39093633      0.00814015     -0.00930840      0.01566879
    2
 MD step:         500 time   1.2094421632525001     
 H      0.06295407     -0.00195942     -0.38105529      0.05183721     -0.00164728     -0.00477511
 H      0.00967941     -0.01127615      0.39275877      0.00821815     -0.00929625      0.01445187
    2
 MD step:         550 time   1.3303863795777500     
 H      0.06921793     -0.00215961     -0.38155454      0.05174293     -0.00166361     -0.00346639
 H      0.01067891     -0.01239951      0.39442837      0.00831243     -0.00927992      0.01314315
    2
 MD step:         600 time   1.4513305959030001     
 H      0.07546962     -0.00236180     -0.38189053      0.05163683     -0.00167946     -0.00207727
 H      0.01169057     -0.01352088      0.39593471      0.00841853     -0.00926407      0.01175403
    2
 MD step:         650 time   1.5722748122282502     
 H      0.08170787     -0.00256576     -0.38205423      0.05152035     -0.00169335     -0.00061916
 H      0.01271566     -0.01464048      0.39726875      0.00853501     -0.00925018      0.01029592
    2
 MD step:         700 time   1.6932190285535000     
 H      0.08793121     -0.00277150     -0.38203798      0.05138944     -0.00170948      0.00089642
 H      0.01375567     -0.01575830      0.39842286      0.00866593     -0.00923405      0.00878034
    2
 MD step:         750 time   1.8141632448787501     
 H      0.09413763     -0.00297955     -0.38183555      0.05123990     -0.00173240      0.00245792
 H      0.01481261     -0.01687380      0.39939077      0.00881547     -0.00921113      0.00721883
    2
 MD step:         800 time   1.9351074612040000     
 H      0.10032484     -0.00319080     -0.38144205      0.05107295     -0.00176140      0.00405384
 H      0.01588874     -0.01798611      0.40016762      0.00898241     -0.00918213      0.00562291
    2
 MD step:         850 time   2.0560516775292501     
 H      0.10649118     -0.00340558     -0.38085405      0.05089614     -0.00178966      0.00567242
 H      0.01698575     -0.01909488      0.40074997      0.00915922     -0.00915387      0.00400433
    2
 MD step:         900 time   2.1769958938545000     
 H      0.11263586     -0.00362347     -0.38006952      0.05071468     -0.00181287      0.00730197
 H      0.01810442     -0.02020055      0.40113578      0.00934069     -0.00913066      0.00237479
    2
 MD step:         950 time   2.2979401101797499     
 H      0.11875810     -0.00384412     -0.37908781      0.05052390     -0.00183672      0.00893113
 H      0.01924553     -0.02130345      0.40132442      0.00953146     -0.00910681      0.00074563
    2
 MD step:        1000 time   2.4188843265050002     
 H      0.12485644     -0.00406802     -0.37790966      0.05031905     -0.00186720      0.01054836
 H      0.02041054     -0.02240311      0.40131662      0.00973631     -0.00907633     -0.00087161
    2
 MD step:        1050 time   2.5398285428302501     
 H      0.13092914     -0.00429609     -0.37653722      0.05010094     -0.00190490      0.01214227
 H      0.02160119     -0.02349860      0.40111453      0.00995442     -0.00903863     -0.00246551
    2
 MD step:        1100 time   2.6607727591554999     
 H      0.13697516     -0.00452874     -0.37497400      0.04987967     -0.00194130      0.01370126
 H      0.02281852     -0.02458951      0.40072165      0.01017569     -0.00900223     -0.00402450
    2
 MD step:        1150 time   2.7817169754807503     
 H      0.14299469     -0.00476532     -0.37322492      0.04966381     -0.00196961      0.01521367
 H      0.02406234     -0.02567648      0.40014293      0.01039155     -0.00897392     -0.00553692
    2
 MD step:        1200 time   2.9026611918060001     
 H      0.14898837     -0.00500501     -0.37129631      0.04945073     -0.00199436      0.01666841
 H      0.02533200     -0.02676035      0.39938466      0.01060464     -0.00894917     -0.00699165
    2
 MD step:        1250 time   3.0236054081312500     
 H      0.15495606     -0.00524797     -0.36919580      0.04923330     -0.00202474      0.01805442
 H      0.02662766     -0.02784094      0.39845450      0.01082206     -0.00891879     -0.00837766
    2
 MD step:        1300 time   3.1445496244565003     
 H      0.16089718     -0.00549508     -0.36693237      0.04901227     -0.00206227      0.01936059
 H      0.02794989     -0.02891740      0.39736142      0.01104309     -0.00888126     -0.00968383
    2
 MD step:        1350 time   3.2654938407817502     
 H      0.16681189     -0.00574673     -0.36451635      0.04879924     -0.00209778      0.02057593
 H      0.02929853     -0.02998931      0.39611575      0.01125612     -0.00884575     -0.01089917
    2
 MD step:        1400 time   3.3864380571070001     
 H      0.17270196     -0.00600204     -0.36195939      0.04860601     -0.00212208      0.02168952
 H      0.03067181     -0.03105754      0.39472914      0.01144935     -0.00882145     -0.01201276
    2
 MD step:        1450 time   3.5073822734322500     
 H      0.17856997     -0.00625964     -0.35927442      0.04843327     -0.00213716      0.02269120
 H      0.03206715     -0.03212351      0.39321452      0.01162210     -0.00880637     -0.01301444
    2
 MD step:        1500 time   3.6283264897575003     
 H      0.18441784     -0.00651913     -0.35647553      0.04827173     -0.00215502      0.02357188
 H      0.03348263     -0.03318757      0.39158597      0.01178364     -0.00878851     -0.01389512
    2
 MD step:        1550 time   3.7492707060827501     
 H      0.19024676     -0.00678118     -0.35357790      0.04812089     -0.00217903      0.02432254
 H      0.03491706     -0.03424908      0.38985869      0.01193447     -0.00876450     -0.01464578
    2
 MD step:        1600 time   3.8702149224080000     
 H      0.19605863     -0.00704611     -0.35059777      0.04799259     -0.00220030      0.02493471
 H      0.03636854     -0.03530771      0.38804891      0.01206277     -0.00874323     -0.01525795
    2
 MD step:        1650 time   3.9911591387332503     
 H      0.20185713     -0.00731280     -0.34755238      0.04790172     -0.00220697      0.02540048
 H      0.03783338     -0.03636457      0.38617387      0.01215364     -0.00873656     -0.01572372
    2
 MD step:        1700 time   4.1121033550585002     
 H      0.20764718     -0.00757930     -0.34445986      0.04785177     -0.00219850      0.02571332
 H      0.03930668     -0.03742163      0.38425169      0.01220359     -0.00874503     -0.01603656
    2
 MD step:        1750 time   4.2330475713837501     
 H      0.21343312     -0.00784454     -0.34133896      0.04783205     -0.00218823      0.02586904
 H      0.04078409     -0.03847994      0.38230114      0.01222332     -0.00875530     -0.01619228
    2
 MD step:        1800 time   4.3539917877090000     
 H      0.21921825     -0.00810881     -0.33820890      0.04783872     -0.00218258      0.02586432
 H      0.04226231     -0.03953923      0.38034143      0.01221664     -0.00876095     -0.01618756
    2
 MD step:        1850 time   4.4749360040342498     
 H      0.22500620     -0.00837238     -0.33508922      0.04788166     -0.00217407      0.02569736
 H      0.04373770     -0.04059922      0.37839210      0.01217370     -0.00876946     -0.01602060
    2
 MD step:        1900 time   4.5958802203594997     
 H      0.23080240     -0.00863399     -0.33199958      0.04797729     -0.00214848      0.02536755
 H      0.04520485     -0.04166116      0.37647280      0.01207807     -0.00879505     -0.01569079
    2
 MD step:        1950 time   4.7168244366847505     
 H      0.23661372     -0.00889122     -0.32895960      0.04813054     -0.00210265      0.02487663
 H      0.04665689     -0.04272749      0.37460318      0.01192482     -0.00884088     -0.01519987
    2
 MD step:        2000 time   4.8377686530100004     
 H      0.24244641     -0.00914236     -0.32598849      0.04832852     -0.00205041      0.02422986
 H      0.04808754     -0.04379991      0.37280241      0.01172684     -0.00889312     -0.01455310
    2
 MD step:        2050 time   4.9587128693352502     
 H      0.24830522     -0.00938736     -0.32310469      0.04856156     -0.00200198      0.02343414
 H      0.04949208     -0.04487847      0.37108896      0.01149380     -0.00894155     -0.01375738
    2
 MD step:        2100 time   5.0796570856605001     
 H      0.25419447     -0.00962659     -0.32032568      0.04883423     -0.00195267      0.02249860
 H      0.05086618     -0.04596279      0.36948029      0.01122113     -0.00899086     -0.01282184
    2
 MD step:        2150 time   5.2006013019857500     
 H      0.26011988     -0.00985900     -0.31766775      0.04916179     -0.00188663      0.02143375
 H      0.05220412     -0.04705394      0.36799272      0.01089358     -0.00905690     -0.01175699
    2
 MD step:        2200 time   5.3215455183109999     
 H      0.26608856     -0.01008201     -0.31514578      0.04954833     -0.00179830      0.02025287
 H      0.05349879     -0.04815448      0.36664110      0.01050704     -0.00914523     -0.01057611
    2
 MD step:        2250 time   5.4424897346362506     
 H      0.27210679     -0.01029363     -0.31277283      0.04997806     -0.00170090      0.01897239
 H      0.05474391     -0.04926643      0.36543849      0.01007731     -0.00924263     -0.00929563
    2
 MD step:        2300 time   5.5634339509615005     
 H      0.27817864     -0.01049371     -0.31055986      0.05043243     -0.00160961      0.01761062
 H      0.05593541     -0.05038989      0.36439587      0.00962294     -0.00933393     -0.00793386
    2
 MD step:        2350 time   5.6843781672867504     
 H      0.28430667     -0.01068319     -0.30851552      0.05090860     -0.00152320      0.01618693
 H      0.05707073     -0.05152398      0.36352188      0.00914676     -0.00942033     -0.00651017
    2
 MD step:        2400 time   5.8053223836120003     
 H      0.29049421     -0.01086169     -0.30664615      0.05141855     -0.00142529      0.01472057
 H      0.05814654     -0.05266904      0.36282286      0.00863681     -0.00951824     -0.00504381
    2
 MD step:        2450 time   5.9262665999372501     
 H      0.29674572     -0.01102713     -0.30495566      0.05196506     -0.00130773      0.01323257
 H      0.05915837     -0.05382715      0.36230271      0.00809030     -0.00963581     -0.00355581
    2
 MD step:        2500 time   6.0472108162625000     
 H      0.30306476     -0.01117764     -0.30344534      0.05253087     -0.00118168      0.01174483
 H      0.06010268     -0.05500019      0.36196274      0.00752450     -0.00976185     -0.00206807
    2
 MD step:        2550 time   6.1681550325877499     
 H      0.30945196     -0.01131349     -0.30211377      0.05308850     -0.00106770      0.01028042
 H      0.06097883     -0.05618790      0.36180152      0.00696686     -0.00987584     -0.00060366
    2
 MD step:        2600 time   6.2890992489130007     
 H      0.31590554     -0.01143651     -0.30095685      0.05362884     -0.00096815      0.00886009
 H      0.06178860     -0.05738844      0.36181495      0.00642653     -0.00997538      0.00081666
    2
 MD step:        2650 time   6.4100434652382505     
 H      0.32242384     -0.01154761     -0.29996808      0.05416117     -0.00086713      0.00750278
 H      0.06253365     -0.05860090      0.36199652      0.00589419     -0.01007640      0.00217398
    2
 MD step:        2700 time   6.5309876815635004     
 H      0.32900644     -0.01164566     -0.29913876      0.05469156     -0.00075193      0.00622609
 H      0.06321440     -0.05982640      0.36233755      0.00536380     -0.01019160      0.00345067
    2
 MD step:        2750 time   6.6519318978887503     
 H      0.33565242     -0.01172924     -0.29845813      0.05520426     -0.00063145      0.00504702
 H      0.06383177     -0.06106638      0.36282727      0.00485111     -0.01031208      0.00462973
    2
 MD step:        2800 time   6.7728761142140002     
 H      0.34235774     -0.01179916     -0.29791334      0.05566888     -0.00052903      0.00398205
 H      0.06438979     -0.06232001      0.36345283      0.00438648     -0.01041450      0.00569471
    2
 MD step:        2850 time   6.8938203305392500     
 H      0.34911556     -0.01185827     -0.29748981      0.05607199     -0.00045203      0.00304373
 H      0.06489532     -0.06358446      0.36419965      0.00398337     -0.01049150      0.00663303
    2
 MD step:        2900 time   7.0147645468644999     
 H      0.35591885     -0.01190889     -0.29717160      0.05642403     -0.00038476      0.00224153
 H      0.06535538     -0.06485740      0.36505179      0.00363134     -0.01055877      0.00743523
    2
 MD step:        2950 time   7.1357087631897507     
 H      0.36276243     -0.01195095     -0.29694187      0.05673932     -0.00030857      0.00158174
 H      0.06577515     -0.06613890      0.36599240      0.00331605     -0.01063496      0.00809501
    2
 MD step:        3000 time   7.2566529795150005     
 H      0.36964159     -0.01198336     -0.29678301      0.05700804     -0.00022891      0.00107045
 H      0.06615934     -0.06743004      0.36700389      0.00304732     -0.01071462      0.00860631
    2
 MD step:        3050 time   7.3775971958402504     
 H      0.37654900     -0.01200716     -0.29667676      0.05720220     -0.00016981      0.00071232
 H      0.06651528     -0.06872980      0.36806799      0.00285317     -0.01077372      0.00896444
    2
 MD step:        3100 time   7.4985414121655003     
 H      0.38347443     -0.01202585     -0.29660446      0.05730562     -0.00014446      0.00050914
 H      0.06685320     -0.07003467      0.36916604      0.00274974     -0.01079907      0.00916762
    2
 MD step:        3150 time   7.6194856284907502     
 H      0.39040745     -0.01204286     -0.29654744      0.05733203     -0.00013767      0.00045889
 H      0.06718353     -0.07134121      0.37027937      0.00272333     -0.01080587      0.00921787
    2
 MD step:        3200 time   7.7404298448160000     
 H      0.39734028     -0.01205888     -0.29648749      0.05730541     -0.00012507      0.00055683
 H      0.06751404     -0.07264875      0.37138976      0.00274995     -0.01081846      0.00911993
    2
 MD step:        3250 time   7.8613740611412499     
 H      0.40426686     -0.01207283     -0.29640693      0.05722545     -0.00010641      0.00079908
 H      0.06785082     -0.07395835      0.37247956      0.00282992     -0.01083712      0.00887768
    2
 MD step:        3300 time   7.9823182774665007     
 H      0.41117931     -0.01208536     -0.29628855      0.05706750     -0.00010593      0.00118149
 H      0.06820171     -0.07526939      0.37353152      0.00298787     -0.01083760      0.00849527
    2
 MD step:        3350 time   8.1032624937917497     
 H      0.41806687     -0.01210001     -0.29611571      0.05681294     -0.00014251      0.00169863
 H      0.06857750     -0.07657829      0.37452903      0.00324242     -0.01080102      0.00797813
    2
 MD step:        3400 time   8.2242067101170004     
 H      0.42491837     -0.01212083     -0.29587258      0.05647616     -0.00020344      0.00234206
 H      0.06898935     -0.07788103      0.37545625      0.00357921     -0.01074009      0.00733470
    2
 MD step:        3450 time   8.3451509264422494     
 H      0.43172581     -0.01214900     -0.29554454      0.05608911     -0.00025965      0.00310099
 H      0.06944526     -0.07917642      0.37629856      0.00396626     -0.01068389      0.00657577
    2
 MD step:        3500 time   8.4660951427675002     
 H      0.43848410     -0.01218309     -0.29511820      0.05566173     -0.00030354      0.00396634
 H      0.06995032     -0.08046588      0.37704256      0.00439364     -0.01063999      0.00571042
    2
 MD step:        3550 time   8.5870393590927510     
 H      0.44518722     -0.01222289     -0.29458115      0.05517210     -0.00035904      0.00493031
 H      0.07051054     -0.08174964      0.37767586      0.00488327     -0.01058450      0.00474645
    2
 MD step:        3600 time   8.7079835754179999     
 H      0.45182616     -0.01227142     -0.29392197      0.05459861     -0.00045011      0.00598456
 H      0.07113496     -0.08302466      0.37818703      0.00545675     -0.01049342      0.00369219
    2
 MD step:        3650 time   8.8289277917432507     
 H      0.45839103     -0.01233292     -0.29313033      0.05395253     -0.00056900      0.00711881
 H      0.07183343     -0.08428672      0.37856574      0.00610283     -0.01037453      0.00255795
    2
 MD step:        3700 time   8.9498720080684997     
 H      0.46487525     -0.01240885     -0.29219731      0.05327093     -0.00068345      0.00832034
 H      0.07261257     -0.08553434      0.37880306      0.00678443     -0.01026008      0.00135642
    2
 MD step:        3750 time   9.0708162243937505     
 H      0.47127611     -0.01249736     -0.29111549      0.05257404     -0.00077771      0.00957774
 H      0.07347505     -0.08676939      0.37889159      0.00748132     -0.01016582      0.00009901
    2
 MD step:        3800 time   9.1917604407189994     
 H      0.47759092     -0.01259705     -0.28987864      0.05184287     -0.00087398      0.01088269
 H      0.07442360     -0.08799326      0.37882509      0.00821250     -0.01006955     -0.00120593
    2
 MD step:        3850 time   9.3127046570442502     
 H      0.48381388     -0.01271003     -0.28848152      0.05105259     -0.00100063      0.01222653
 H      0.07546399     -0.08920384      0.37859833      0.00900277     -0.00994290     -0.00254977
    2
 MD step:        3900 time   9.4336488733695010     
 H      0.48993772     -0.01284033     -0.28692000      0.05020855     -0.00115656      0.01359956
 H      0.07660349     -0.09039709      0.37820715      0.00984681     -0.00978697     -0.00392280
    2
 MD step:        3950 time   9.5545930896947500     
 H      0.49595817     -0.01298961     -0.28519126      0.04934974     -0.00130845      0.01498970
 H      0.07784639     -0.09157137      0.37764876      0.01070563     -0.00963508     -0.00531294
    2
 MD step:        4000 time   9.6755373060200007     
 H      0.50187550     -0.01315566     -0.28329396      0.04850515     -0.00143298      0.01638525
 H      0.07919241     -0.09272888      0.37692180      0.01155021     -0.00951055     -0.00670849
    2
 MD step:        4050 time   9.7964815223452497     
 H      0.50769106     -0.01333581     -0.28122796      0.04766151     -0.00154748      0.01777823
 H      0.08064020     -0.09387229      0.37602615      0.01239386     -0.00939605     -0.00810147
    2
 MD step:        4100 time   9.9174257386705005     
 H      0.51340309     -0.01353094     -0.27899401      0.04678972     -0.00168492      0.01916117
 H      0.08219152     -0.09500071      0.37496255      0.01326564     -0.00925861     -0.00948441
    2
 MD step:        4150 time   10.038369954995749     
 H      0.51900774     -0.01374457     -0.27659387      0.04588945     -0.00185067      0.02052486
 H      0.08385022     -0.09611064      0.37373276      0.01416591     -0.00909286     -0.01084811
    2
 MD step:        4200 time   10.159314171321000     
 H      0.52450362     -0.01397845     -0.27403052      0.04499890     -0.00201289      0.02185797
 H      0.08561769     -0.09720032      0.37233976      0.01505646     -0.00893064     -0.01218121
    2
 MD step:        4250 time   10.280258387646251     
 H      0.52989436     -0.01423008     -0.27130838      0.04415434     -0.00214207      0.02314893
 H      0.08749029     -0.09827224      0.37078796      0.01590103     -0.00880146     -0.01347217
    2
 MD step:        4300 time   10.401202603971500     
 H      0.53518578     -0.01449559     -0.26843311      0.04335165     -0.00224763      0.02438925
 H      0.08946222     -0.09933029      0.36908304      0.01670372     -0.00869590     -0.01471249
    2
 MD step:        4350 time   10.522146820296751     
 H      0.54038095     -0.01477432     -0.26541117      0.04255826     -0.00236604      0.02557324
 H      0.09153040     -0.10037512      0.36723145      0.01749711     -0.00857749     -0.01589648
    2
 MD step:        4400 time   10.643091036622000     
 H      0.54548018     -0.01506896     -0.26224983      0.04176766     -0.00250926      0.02669282
 H      0.09369452     -0.10140403      0.36524046      0.01828771     -0.00843427     -0.01701606
    2
 MD step:        4450 time   10.764035252947250     
 H      0.55048557     -0.01538116     -0.25895748      0.04101462     -0.00264931      0.02773794
 H      0.09595248     -0.10241539      0.36311846      0.01904074     -0.00829422     -0.01806118
    2
 MD step:        4500 time   10.884979469272501     
 H      0.55540440     -0.01570822     -0.25554376      0.04034109     -0.00275150      0.02869829
 H      0.09829699     -0.10341189      0.36087509      0.01971428     -0.00819203     -0.01902153
    2
 MD step:        4550 time   11.005923685597750     
 H      0.56024707     -0.01604519     -0.25201944      0.03975173     -0.00281721      0.02956594
 H      0.10071768     -0.10439848      0.35852112      0.02030363     -0.00812632     -0.01988918
    2
 MD step:        4600 time   11.126867901923001     
 H      0.56502193     -0.01638970     -0.24839598      0.03921398     -0.00288274      0.03033722
 H      0.10320617     -0.10537752      0.35606800      0.02084138     -0.00806079     -0.02066046
    2
 MD step:        4650 time   11.247812118248250     
 H      0.56973390     -0.01674333     -0.24468532      0.03871309     -0.00296767      0.03100685
 H      0.10575754     -0.10634745      0.35352768      0.02134228     -0.00797586     -0.02133009
    2
 MD step:        4700 time   11.368756334573501     
 H      0.57438880     -0.01710745     -0.24090018      0.03827809     -0.00304951      0.03156720
 H      0.10836599     -0.10730688      0.35091290      0.02177728     -0.00789402     -0.02189044
    2
 MD step:        4750 time   11.489700550898750     
 H      0.57899746     -0.01747925     -0.23705431      0.03795423     -0.00309007      0.03201018
 H      0.11102068     -0.10825864      0.34823737      0.02210113     -0.00785346     -0.02233342
    2
 MD step:        4800 time   11.610644767224001     
 H      0.58357452     -0.01785292     -0.23316225      0.03775349     -0.00308296      0.03233048
 H      0.11370697     -0.10920853      0.34551566      0.02230187     -0.00786057     -0.02265372
    2
 MD step:        4850 time   11.731588983549251     
 H      0.58813328     -0.01822444     -0.22923888      0.03764453     -0.00306181      0.03252806
 H      0.11641156     -0.11016057      0.34276265      0.02241084     -0.00788172     -0.02285130
    2
 MD step:        4900 time   11.852533199874500     
 H      0.59268293     -0.01859412     -0.22529901      0.03760240     -0.00305369      0.03260332
 H      0.11912526     -0.11111444      0.33999312      0.02245296     -0.00788984     -0.02292656
    2
 MD step:        4950 time   11.973477416199751     
 H      0.59723226     -0.01896306     -0.22135752      0.03764575     -0.00304364      0.03255446
 H      0.12183928     -0.11206906      0.33722198      0.02240961     -0.00789989     -0.02287770
    2
 MD step:        5000 time   12.094421632525000     
 H      0.60179422     -0.01932865     -0.21742955      0.03781755     -0.00299266      0.03237944
 H      0.12454066     -0.11302703      0.33446436      0.02223782     -0.00795087     -0.02270268
    2
 MD step:        5050 time   12.215365848850251     
 H      0.60638580     -0.01968467     -0.21353038      0.03813395     -0.00288689      0.03207886
 H      0.12721244     -0.11399456      0.33173553      0.02192142     -0.00805664     -0.02240210
    2
 MD step:        5100 time   12.336310065175500     
 H      0.61102289     -0.02002597     -0.20967482      0.03856221     -0.00275680      0.03165986
 H      0.12983869     -0.11497681      0.32905032      0.02149315     -0.00818673     -0.02198310
    2
 MD step:        5150 time   12.457254281500751     
 H      0.61571653     -0.02035192     -0.20587666      0.03906573     -0.00263572      0.03113076
 H      0.13240840     -0.11597442      0.32642251      0.02098964     -0.00830781     -0.02145400
    2
 MD step:        5200 time   12.578198497826001     
 H      0.62047551     -0.02066374     -0.20214880      0.03964716     -0.00251852      0.03049852
 H      0.13491277     -0.11698616      0.32386500      0.02040821     -0.00842501     -0.02082176
    2
 MD step:        5250 time   12.699142714151250     
 H      0.62531133     -0.02095974     -0.19850336      0.04034235     -0.00236774      0.02976880
 H      0.13734030     -0.11801372      0.32138990      0.01971301     -0.00857579     -0.02009204
    2
 MD step:        5300 time   12.820086930476501     
 H      0.63023922     -0.02123421     -0.19495168      0.04116812     -0.00216289      0.02894975
 H      0.13967576     -0.11906281      0.31900858      0.01888724     -0.00878064     -0.01927300
    2
 MD step:        5350 time   12.941031146801750     
 H      0.63527325     -0.02148181     -0.19150374      0.04208864     -0.00193070      0.02805634
 H      0.14190508     -0.12013876      0.31673098      0.01796673     -0.00901283     -0.01837958
    2
 MD step:        5400 time   13.061975363127001     
 H      0.64042176     -0.02170172     -0.18816752      0.04305453     -0.00170989      0.02710483
 H      0.14401991     -0.12124241      0.31456511      0.01700084     -0.00923364     -0.01742807
    2
 MD step:        5450 time   13.182919579452250     
 H      0.64568872     -0.02189619     -0.18494910      0.04404916     -0.00150657      0.02611065
 H      0.14601630     -0.12237150      0.31251704      0.01600620     -0.00943696     -0.01643390
    2
 MD step:        5500 time   13.303863795777501     
 H      0.65107898     -0.02206545     -0.18185291      0.04509899     -0.00128635      0.02508535
 H      0.14788939     -0.12352579      0.31059120      0.01495637     -0.00965719     -0.01540859
    2
 MD step:        5550 time   13.424808012102751     
 H      0.65660062     -0.02220553     -0.17888198      0.04622021     -0.00102330      0.02404207
 H      0.14963110     -0.12470927      0.30879062      0.01383515     -0.00992023     -0.01436531
    2
 MD step:        5600 time   13.545752228428000     
 H      0.66226064     -0.02231204     -0.17603743      0.04737857     -0.00073775      0.02299838
 H      0.15123443     -0.12592632      0.30711641      0.01267680     -0.01020578     -0.01332163
    2
 MD step:        5650 time   13.666696444753251     
 H      0.66805998     -0.02238489     -0.17331818      0.04851412     -0.00047359      0.02197350
 H      0.15269844     -0.12717702      0.30556751      0.01154124     -0.01046994     -0.01229674
    2
 MD step:        5700 time   13.787640661078500     
 H      0.67399345     -0.02242816     -0.17072088      0.04959683     -0.00024654      0.02098367
 H      0.15402832     -0.12845731      0.30414055      0.01045853     -0.01069699     -0.01130691
    2
 MD step:        5750 time   13.908584877403751     
 H      0.68005556     -0.02244481     -0.16824064      0.05064708     -0.00002631      0.02003930
 H      0.15522956     -0.12976422      0.30283066      0.00940829     -0.01091722     -0.01036254
    2
 MD step:        5800 time   14.029529093729000     
 H      0.68624405     -0.02243343     -0.16587138      0.05168725      0.00021935      0.01915018