    2
 MD step:           0 time   0.0000000000000000     
 H      0.00000000      0.00000000     -0.37000000     -0.03777335     -0.00491813      0.02936137
 H      0.00000000      0.00000000      0.37000000     -0.00356492      0.00953456     -0.04868301
    2
 MD step:          50 time  0.12094421632525000     
 H     -0.00456850     -0.00059483     -0.36646429     -0.03777443     -0.00491856      0.02903551
 H     -0.00043112      0.00115316      0.36412744     -0.00356385      0.00953499     -0.04835716
    2
 MD step:         100 time  0.24188843265050000     
 H     -0.00913743     -0.00118985     -0.36299407     -0.03778126     -0.00492152      0.02827620
 H     -0.00086182      0.00230651      0.35832039     -0.00355701      0.00953795     -0.04759785
    2
 MD step:         150 time  0.36283264897575002     
 H     -0.01370778     -0.00178547     -0.35964267     -0.03779887     -0.00492893      0.02706868
 H     -0.00129109      0.00346046      0.35263214     -0.00353940      0.00954536     -0.04639033
    2
 MD step:         200 time  0.48377686530100000     
 H     -0.01828122     -0.00238238     -0.35646495     -0.03783322     -0.00494344      0.02540300
 H     -0.00171728      0.00461571      0.34711758     -0.00350506      0.00955987     -0.04472465
    2
 MD step:         250 time  0.60472108162625005     
 H     -0.02286012     -0.00298162     -0.35351652     -0.03789023     -0.00496759      0.02327761
 H     -0.00213801      0.00577327      0.34183231     -0.00344805      0.00958402     -0.04259926
    2
 MD step:         300 time  0.72566529795150003     
 H     -0.02744756     -0.00358446     -0.35085254     -0.03797546     -0.00500361      0.02070158
 H     -0.00255019      0.00693445      0.33683149     -0.00336281      0.00962004     -0.04002323
    2
 MD step:         350 time  0.84660951427675002     
 H     -0.03204730     -0.00419251     -0.34852641     -0.03809438     -0.00505388      0.01769510
 H     -0.00295008      0.00810082      0.33216852     -0.00324389      0.00967031     -0.03701675
    2
 MD step:         400 time  0.96755373060200001     
 H     -0.03666369     -0.00480759     -0.34658837     -0.03825149     -0.00512027      0.01429008
 H     -0.00333331      0.00927424      0.32789364     -0.00308679      0.00973670     -0.03361172
    2
 MD step:         450 time   1.0884979469272500     
 H     -0.04130159     -0.00543176     -0.34508427     -0.03845058     -0.00520448      0.01052632
 H     -0.00369504      0.01045674      0.32405270     -0.00288770      0.00982091     -0.02984797
    2
 MD step:         500 time   1.2094421632525001     
 H     -0.04596622     -0.00606724     -0.34405472     -0.03869373     -0.00530720      0.00645169
 H     -0.00403004      0.01165055      0.32068631     -0.00264455      0.00992364     -0.02577334
    2
 MD step:         550 time   1.3303863795777500     
 H     -0.05066297     -0.00671628     -0.34353376     -0.03898179     -0.00542896      0.00212725
 H     -0.00433291      0.01285792      0.31782851     -0.00235648      0.01004540     -0.02144889
    2
 MD step:         600 time   1.4513305959030001     
 H     -0.05539721     -0.00738118     -0.34354733     -0.03931318     -0.00556906     -0.00237457
 H     -0.00459829      0.01408115      0.31550523     -0.00202509      0.01018549     -0.01694708
    2
 MD step:         650 time   1.5722748122282502     
 H     -0.06017396     -0.00806404     -0.34411204     -0.03968391     -0.00572570     -0.00697287
 H     -0.00482117      0.01532235      0.31373310     -0.00165437      0.01034214     -0.01234877
    2
 MD step:         700 time   1.6932190285535000     
 H     -0.06499765     -0.00876674     -0.34523443     -0.04008820     -0.00589660     -0.01158234
 H     -0.00499711      0.01658337      0.31251865     -0.00125008      0.01051303     -0.00773931
    2
 MD step:         750 time   1.8141632448787501     
 H     -0.06987186     -0.00949079     -0.34691065     -0.04051798     -0.00607827     -0.01611706
 H     -0.00512252      0.01786576      0.31185803     -0.00082029      0.01069471     -0.00320458
    2
 MD step:         800 time   1.9351074612040000     
 H     -0.07479912     -0.01023727     -0.34912663     -0.04096365     -0.00626663     -0.02049476
 H     -0.00519489      0.01917057      0.31173716     -0.00037462      0.01088306      0.00117311
    2
 MD step:         850 time   2.0560516775292501     
 H     -0.07978071     -0.01100671     -0.35185874     -0.04141467     -0.00645719     -0.02464063
 H     -0.00521292      0.02049833      0.31213244      0.00007639      0.01107363      0.00531898
    2
 MD step:         900 time   2.1769958938545000     
 H     -0.08481665     -0.01179912     -0.35507497     -0.04186052     -0.00664578     -0.02849062
 H     -0.00517661      0.02184908      0.31301182      0.00052225      0.01126221      0.00916897
    2
 MD step:         950 time   2.2979401101797499     
 H     -0.08990562     -0.01261395     -0.35873630     -0.04228994     -0.00682725     -0.03199378
 H     -0.00508727      0.02322224      0.31433631      0.00095166      0.01144368      0.01267213
    2
 MD step:        1000 time   2.4188843265050002     
 H     -0.09504503     -0.01345010     -0.36279829     -0.04269293     -0.00699755     -0.03510984
 H     -0.00494748      0.02461672      0.31606146      0.00135465      0.01161398      0.01578819
    2
 MD step:        1050 time   2.5398285428302501     
 H     -0.10023108     -0.01430597     -0.36721198     -0.04305958     -0.00715264     -0.03780490
 H     -0.00476105      0.02603092      0.31813831      0.00172130      0.01176907      0.01848326
    2
 MD step:        1100 time   2.6607727591554999     
 H     -0.10545879     -0.01517946     -0.37192497     -0.04338047     -0.00728835     -0.04005634
 H     -0.00453296      0.02746274      0.32051445      0.00204220      0.01190478      0.02073470
    2
 MD step:        1150 time   2.7817169754807503     
 H     -0.11072215     -0.01606802     -0.37688279     -0.04364783     -0.00740135     -0.04185275
 H     -0.00426923      0.02890963      0.32313544      0.00230956      0.01201779      0.02253111
    2
 MD step:        1200 time   2.9026611918060001     
 H     -0.11601431     -0.01696875     -0.38203029     -0.04385590     -0.00748941     -0.04319350
 H     -0.00397670      0.03036870      0.32594609      0.00251762      0.01210584      0.02387186
    2
 MD step:        1250 time   3.0236054081312500     
 H     -0.12132782     -0.01787854     -0.38731278     -0.04400022     -0.00755062     -0.04408720
 H     -0.00366282      0.03183681      0.32889174      0.00266194      0.01216705      0.02476555
    2
 MD step:        1300 time   3.1445496244565003     
 H     -0.12665473     -0.01879400     -0.39267704     -0.04407723     -0.00758318     -0.04454864
 H     -0.00333553      0.03331061      0.33191917      0.00273895      0.01219961      0.02522699
    2
 MD step:        1350 time   3.2654938407817502     
 H     -0.13198683     -0.01971166     -0.39807198     -0.04408586     -0.00758696     -0.04459827
 H     -0.00300305      0.03478660      0.33497726      0.00274758      0.01220339      0.02527662
    2
 MD step:        1400 time   3.3864380571070001     
 H     -0.13731583     -0.02062804     -0.40344922     -0.04402577     -0.00756189     -0.04426011
 H     -0.00267368      0.03626131      0.33801766      0.00268750      0.01217832      0.02493846
    2
 MD step:        1450 time   3.5073822734322500     
 H     -0.14263337     -0.02153960     -0.40876342     -0.04389668     -0.00750738     -0.04356043
 H     -0.00235577      0.03773120      0.34099501      0.00255841      0.01212381      0.02423878
    2
 MD step:        1500 time   3.6283264897575003     
 H     -0.14793123     -0.02244285     -0.41397255     -0.04370065     -0.00742467     -0.04252733
 H     -0.00205753      0.03919278      0.34386730      0.00236238      0.01204110      0.02320568
    2
 MD step:        1550 time   3.7492707060827501     
 H     -0.15320145     -0.02333446     -0.41903799     -0.04344005     -0.00731494     -0.04118909
 H     -0.00178693      0.04064272      0.34659590      0.00210177      0.01193137      0.02186744
    2
 MD step:        1600 time   3.8702149224080000     
 H     -0.15843634     -0.02421116     -0.42392457     -0.04311657     -0.00717834     -0.03957441
 H     -0.00155168      0.04207776      0.34914565      0.00177829      0.01179477      0.02025277
    2
 MD step:        1650 time   3.9911591387332503     
 H     -0.16362846     -0.02506981     -0.42860056     -0.04273377     -0.00701668     -0.03771122
 H     -0.00135917      0.04349473      0.35148480      0.00139549      0.01163312      0.01838957
    2
 MD step:        1700 time   4.1121033550585002     
 H     -0.16877091     -0.02590749     -0.43303758     -0.04229560     -0.00683193     -0.03562707
 H     -0.00121635      0.04489074      0.35358497      0.00095733      0.01144836      0.01630542
    2
 MD step:        1750 time   4.2330475713837501     
 H     -0.17385716     -0.02672147     -0.43721050     -0.04180489     -0.00662477     -0.03334846
 H     -0.00112973      0.04626305      0.35542105      0.00046661      0.01124120      0.01402682
    2
 MD step:        1800 time   4.3539917877090000     
 H     -0.17888108     -0.02750911     -0.44109738     -0.04126567     -0.00639701     -0.03090094
 H     -0.00110544      0.04760903      0.35697109     -0.00007260      0.01101344      0.01157930
    2
 MD step:        1850 time   4.4749360040342498     
 H     -0.18383708     -0.02826809     -0.44467925     -0.04068253     -0.00615095     -0.02830848
 H     -0.00114906      0.04892634      0.35821611     -0.00065575      0.01076738      0.00898684
    2
 MD step:        1900 time   4.5958802203594997     
 H     -0.18872007     -0.02899626     -0.44793992     -0.04005871     -0.00588766     -0.02559303
 H     -0.00126569      0.05021284      0.35913995     -0.00127957      0.01050409      0.00627138
    2
 MD step:        1950 time   4.7168244366847505     
 H     -0.19352530     -0.02969160     -0.45086573     -0.03939743     -0.00560830     -0.02277405
 H     -0.00146009      0.05146651      0.35972892     -0.00194084      0.01022473      0.00345240
    2
 MD step:        2000 time   4.8377686530100004     
 H     -0.19824853     -0.03035230     -0.45344526     -0.03870311     -0.00531527     -0.01986967
 H     -0.00173649      0.05268554      0.35997160     -0.00263517      0.00993170      0.00054802
    2
 MD step:        2050 time   4.9587128693352502     
 H     -0.20288593     -0.03097679     -0.45566923     -0.03797868     -0.00500949     -0.01689715
 H     -0.00209872      0.05386836      0.35985873     -0.00335960      0.00962592     -0.00242450
    2
 MD step:        2100 time   5.0796570856605001     
 H     -0.20743403     -0.03156356     -0.45753039     -0.03722715     -0.00469198     -0.01387267
 H     -0.00255023      0.05501346      0.35938305     -0.00411112      0.00930841     -0.00544898
    2
 MD step:        2150 time   5.2006013019857500     
 H     -0.21188984     -0.03211136     -0.45902340     -0.03645312     -0.00436529     -0.01081174
 H     -0.00309405      0.05611959      0.35853922     -0.00488516      0.00898172     -0.00850991
    2
 MD step:        2200 time   5.3215455183109999     
 H     -0.21625083     -0.03261914     -0.46014475     -0.03565948     -0.00403032     -0.00772915
 H     -0.00373269      0.05718570      0.35732373     -0.00567879      0.00864675     -0.01159250
    2
 MD step:        2250 time   5.4424897346362506     
 H     -0.22051478     -0.03308594     -0.46089270     -0.03484920     -0.00368797     -0.00463918
 H     -0.00446836      0.05821084      0.35573483     -0.00648908      0.00830441     -0.01468246
    2
 MD step:        2300 time   5.5634339509615005     
 H     -0.22467996     -0.03351102     -0.46126719     -0.03402691     -0.00334077     -0.00155595
 H     -0.00530281      0.05919425      0.35377249     -0.00731137      0.00795720     -0.01776569
    2
 MD step:        2350 time   5.6843781672867504     
 H     -0.22874517     -0.03389391     -0.46126989     -0.03319646     -0.00299040      0.00150672
 H     -0.00623722      0.06013547      0.35143834     -0.00814181      0.00760683     -0.02082836
    2
 MD step:        2400 time   5.8053223836120003     
 H     -0.23270958     -0.03423425     -0.46090414     -0.03236064     -0.00263728      0.00453452
 H     -0.00727244      0.06103414      0.34873575     -0.00897764      0.00725371     -0.02385617
    2
 MD step:        2450 time   5.9262665999372501     
 H     -0.23657283     -0.03453184     -0.46017505     -0.03152473     -0.00228419      0.00751258
 H     -0.00840881      0.06189006      0.34566982     -0.00981354      0.00690062     -0.02683423
    2
 MD step:        2500 time   6.0472108162625000     
 H     -0.24033527     -0.03478688     -0.45908956     -0.03069414     -0.00193377      0.01042550
 H     -0.00964600      0.06270343      0.34224748     -0.01064414      0.00655020     -0.02974714
    2
 MD step:        2550 time   6.1681550325877499     
 H     -0.24399775     -0.03499973     -0.45765651     -0.02987256     -0.00158678      0.01325725
 H     -0.01098315      0.06347461      0.33847760     -0.01146572      0.00620321     -0.03257890
    2
 MD step:        2600 time   6.2890992489130007     
 H     -0.24756170     -0.03517095     -0.45588672     -0.02906600     -0.00124603      0.01599115
 H     -0.01241882      0.06420417      0.33437097     -0.01227228      0.00586246     -0.03531280
    2
 MD step:        2650 time   6.4100434652382505     
 H     -0.25102937     -0.03530152     -0.45379310     -0.02828143     -0.00091495      0.01860921
 H     -0.01395078      0.06489307      0.32994051     -0.01305684      0.00553138     -0.03793086
    2
 MD step:        2700 time   6.5309876815635004     
 H     -0.25440377     -0.03539274     -0.45139081     -0.02752477     -0.00059552      0.02109220
 H     -0.01557600      0.06554261      0.32520137     -0.01381351      0.00521195     -0.04041385
    2
 MD step:        2750 time   6.6519318978887503     
 H     -0.25768871     -0.03544616     -0.44869745     -0.02680358     -0.00029080      0.02341863
 H     -0.01729068      0.06615437      0.32017117     -0.01453469      0.00490724     -0.04274028
    2
 MD step:        2800 time   6.7728761142140002     
 H     -0.26088908     -0.03546387     -0.44573335     -0.02612762     -0.00000556      0.02556535
 H     -0.01908995      0.06673041      0.31487023     -0.01521066      0.00462199     -0.04488700
    2
 MD step:        2850 time   6.8938203305392500     
 H     -0.26401086     -0.03544842     -0.44252171     -0.02550564      0.00025690      0.02750809
 H     -0.02096779      0.06727329      0.30932175     -0.01583263      0.00435953     -0.04682974
    2
 MD step:        2900 time   7.0147645468644999     
 H     -0.26706115     -0.03540279     -0.43908869     -0.02494718      0.00049288      0.02922186
 H     -0.02291713      0.06778599      0.30355189     -0.01639109      0.00412356     -0.04854351
    2
 MD step:        2950 time   7.1357087631897507     
 H     -0.27004833     -0.03533050     -0.43546351     -0.02446403      0.00069668      0.03068158
 H     -0.02492957      0.06827203      0.29758987     -0.01687424      0.00391975     -0.05000323
    2
 MD step:        3000 time   7.2566529795150005     
 H     -0.27298219     -0.03523574     -0.43167845     -0.02406704      0.00086403      0.03186141
 H     -0.02699534      0.06873560      0.29146797     -0.01727123      0.00375241     -0.05118306
    2
 MD step:        3050 time   7.3775971958402504     
 H     -0.27587379     -0.03512315     -0.42776892     -0.02376738      0.00099060      0.03273563
 H     -0.02910336      0.06918134      0.28522160     -0.01757089      0.00362583     -0.05205728
    2
 MD step:        3100 time   7.4985414121655003     
 H     -0.27873570     -0.03499802     -0.42377340     -0.02357828      0.00107021      0.03327933
 H     -0.03124107      0.06961454      0.27888923     -0.01775999      0.00354623     -0.05260097
    2
 MD step:        3150 time   7.6194856284907502     
 H     -0.28158206     -0.03486637     -0.41973333     -0.02351214      0.00109768      0.03346834
 H     -0.03339434      0.07004123      0.27251232     -0.01782614      0.00351875     -0.05278999
    2
 MD step:        3200 time   7.7404298448160000     
 H     -0.28442843     -0.03473478     -0.41569297     -0.02358039      0.00106870      0.03328093
 H     -0.03554760      0.07046796      0.26613512     -0.01775789      0.00354774     -0.05260258
    2
 MD step:        3250 time   7.8613740611412499     
 H     -0.28729181     -0.03461038     -0.41169900     -0.02379561      0.00097751      0.03269827
 H     -0.03768384      0.07090189      0.25980430     -0.01754267      0.00363893     -0.05201991
    2
 MD step:        3300 time   7.9823182774665007     
 H     -0.29019069     -0.03450104     -0.40780016     -0.02416904      0.00081914      0.03170583
 H     -0.03978459      0.07135088      0.25356862     -0.01716923      0.00379729     -0.05102748
    2
 MD step:        3350 time   8.1032624937917497     
 H     -0.29314472     -0.03441506     -0.40404660     -0.02470885      0.00059074      0.03029490
 H     -0.04183018      0.07182324      0.24747822     -0.01662942      0.00402569     -0.04961654
    2
 MD step:        3400 time   8.2242067101170004     
 H     -0.29617448     -0.03436110     -0.40048912     -0.02542232      0.00028903      0.02846370
 H     -0.04380005      0.07232761      0.24158390     -0.01591595      0.00432741     -0.04778534
    2
 MD step:        3450 time   8.3451509264422494     
 H     -0.29930128     -0.03434821     -0.39717821     -0.02631396     -0.00008845      0.02621972
 H     -0.04567287      0.07287305      0.23593615     -0.01502431      0.00470489     -0.04554137
    2
 MD step:        3500 time   8.4660951427675002     
 H     -0.30254663     -0.03438549     -0.39416280     -0.02738194     -0.00054020      0.02358093
 H     -0.04742715      0.07346866      0.23058390     -0.01395634      0.00515663     -0.04290258
    2
 MD step:        3550 time   8.5870393590927510     
 H     -0.30593157     -0.03448179     -0.39148903     -0.02862135     -0.00106423      0.02057577
 H     -0.04904183      0.07412329      0.22557329     -0.01271693      0.00568066     -0.03989742
    2
 MD step:        3600 time   8.7079835754179999     
 H     -0.30947640     -0.03464572     -0.38919903     -0.03002418     -0.00165782      0.01724122
 H     -0.05049663      0.07484555      0.22094645     -0.01131409      0.00627426     -0.03656287
    2
 MD step:        3650 time   8.8289277917432507     
 H     -0.31320012     -0.03488534     -0.38733014     -0.03157696     -0.00231465      0.01362012
 H     -0.05177254      0.07564351      0.21674072     -0.00976132      0.00693108     -0.03294176
    2
 MD step:        3700 time   8.9498720080684997     
 H     -0.31711981     -0.03520784     -0.38591389     -0.03326148     -0.00302692      0.00976599
 H     -0.05285247      0.07652434      0.21298762     -0.00807680      0.00764336     -0.02908764
    2
 MD step:        3750 time   9.0708162243937505     
 H     -0.32125007     -0.03561939     -0.38497467     -0.03505464     -0.00378544      0.00574304
 H     -0.05372183      0.07749422      0.20971157     -0.00628364      0.00840188     -0.02506468
    2
 MD step:        3800 time   9.1917604407189994     
 H     -0.32560232     -0.03612486     -0.38452863     -0.03692688     -0.00457756      0.00162312
 H     -0.05436921      0.07855802      0.20692868     -0.00441139      0.00919400     -0.02094477
    2
 MD step:        3850 time   9.3127046570442502     
 H     -0.33018405     -0.03672739     -0.38458287     -0.03884371     -0.00538808     -0.00251697
 H     -0.05478711      0.07971887      0.20464608     -0.00249456      0.01000452     -0.01680468
    2
 MD step:        3900 time   9.4336488733695010     
 H     -0.33499858     -0.03742836     -0.38513516     -0.04077075     -0.00620325     -0.00660022
 H     -0.05497220      0.08097818      0.20286153     -0.00056752      0.01081968     -0.01272142
    2
 MD step:        3950 time   9.5545930896947500     
 H     -0.34004494     -0.03822743     -0.38617408     -0.04267104     -0.00700730     -0.01055199
 H     -0.05492546      0.08233558      0.20156361      0.00133276      0.01162373     -0.00876965
    2
 MD step:        4000 time   9.6755373060200007     
 H     -0.34531766     -0.03912225     -0.38767952     -0.04450805     -0.00778421     -0.01430436
 H     -0.05465237      0.08378873      0.20073221      0.00316978      0.01240064     -0.00501729
    2
 MD step:        4050 time   9.7964815223452497     
 H     -0.35080709     -0.04010873     -0.38962373     -0.04624994     -0.00852106     -0.01779878
 H     -0.05416257      0.08533354      0.20033957      0.00491167      0.01313750     -0.00152286
    2
 MD step:        4100 time   9.9174257386705005     
 H     -0.35650001     -0.04118131     -0.39197254     -0.04786853     -0.00920611     -0.02098835
 H     -0.05346928      0.08696445      0.20035154      0.00653025      0.01382255      0.00166670
    2
 MD step:        4150 time   10.038369954995749     
 H     -0.36237995     -0.04233303     -0.39468685     -0.04933871     -0.00982805     -0.02383757
 H     -0.05258896      0.08867451      0.20072902      0.00800043      0.01444448      0.00451592
    2
 MD step:        4200 time   10.159314171321000     
 H     -0.36842762     -0.04355570     -0.39772363     -0.05063910     -0.01037812     -0.02631647
 H     -0.05154091      0.09045551      0.20142895      0.00930083      0.01499455      0.00699482
    2
 MD step:        4250 time   10.280258387646251     
 H     -0.37462147     -0.04484024     -0.40103675     -0.05175339     -0.01085007     -0.02840473
 H     -0.05034669      0.09229837      0.20240523      0.01041512      0.01546650      0.00908308
    2
 MD step:        4300 time   10.401202603971500     
 H     -0.38093807     -0.04617676     -0.40457821     -0.05266712     -0.01123679     -0.03009148
 H     -0.04902972      0.09419323      0.20360985      0.01132884      0.01585323      0.01076983
    2
 MD step:        4350 time   10.522146820296751     
 H     -0.38735266     -0.04755474     -0.40829931     -0.05337334     -0.01153556     -0.03137606
 H     -0.04761475      0.09612954      0.20499411      0.01203507      0.01615200      0.01205441
    2
 MD step:        4400 time   10.643091036622000     
 H     -0.39384007     -0.04896356     -0.41215182     -0.05387109     -0.01174679     -0.03226632
 H     -0.04612697      0.09809669      0.20650977      0.01253282      0.01636323      0.01294467
    2
 MD step:        4450 time   10.764035252947250     
 H     -0.40037502     -0.05039257     -0.41608880     -0.05415990     -0.01186940     -0.03277559
 H     -0.04459164      0.10008403      0.20810991      0.01282162      0.01648583      0.01345394
    2
 MD step:        4500 time   10.884979469272501     
 H     -0.40693246     -0.05183112     -0.42006525     -0.05424408     -0.01190508     -0.03292245
 H     -0.04303382      0.10208091      0.20974952      0.01290581      0.01652152      0.01360080
    2
 MD step:        4550 time   11.005923685597750     
 H     -0.41348815     -0.05326897     -0.42403863     -0.05413232     -0.01185847     -0.03272868
 H     -0.04147776      0.10407709      0.21138606      0.01279404      0.01647490      0.01340703
    2
 MD step:        4600 time   11.126867901923001     
 H     -0.42001885     -0.05469633     -0.42796915     -0.05383221     -0.01173217     -0.03221783
 H     -0.03994669      0.10606278      0.21297974      0.01249394      0.01634860      0.01289618
    2
 MD step:        4650 time   11.247812118248250     
 H     -0.42650234     -0.05610377     -0.43182000     -0.05335344     -0.01152976     -0.03141545
 H     -0.03846283      0.10802855      0.21449375      0.01201516      0.01614619      0.01209381
    2
 MD step:        4700 time   11.368756334573501     
 H     -0.43291776     -0.05748245     -0.43555747     -0.05270898     -0.01125774     -0.03034713
 H     -0.03704703      0.10996556      0.21589438      0.01137070      0.01587418      0.01102548
    2
 MD step:        4750 time   11.489700550898750     
 H     -0.43924581     -0.05882427     -0.43915094     -0.05191029     -0.01092069     -0.02903850
 H     -0.03571860      0.11186571      0.21715100      0.01057201      0.01553713      0.00971685
    2
 MD step:        4800 time   11.610644767224001     
 H     -0.44546848     -0.06012156     -0.44257288     -0.05096824     -0.01052238     -0.02751482
 H     -0.03449556      0.11372134      0.21823610      0.00962996      0.01513882      0.00819318
    2
 MD step:        4850 time   11.731588983549251     
 H     -0.45156922     -0.06136731     -0.44579877     -0.04989673     -0.01006959     -0.02580045
 H     -0.03339444      0.11552542      0.21912515      0.00855845      0.01468602      0.00647881
    2
 MD step:        4900 time   11.852533199874500     
 H     -0.45753321     -0.06255531     -0.44880697     -0.04870830     -0.00956780     -0.02391869
 H     -0.03243008      0.11727175      0.21979651      0.00737003      0.01418423      0.00459704
    2
 MD step:        4950 time   11.973477416199751     
 H     -0.46334690     -0.06367981     -0.45157860     -0.04741333     -0.00902029     -0.02189218
 H     -0.03161601      0.11895458      0.22023130      0.00607505      0.01363672      0.00257054
    2
 MD step:        5000 time   12.094421632525000     
 H     -0.46899818     -0.06473562     -0.45409746     -0.04602491     -0.00843323     -0.01974233
 H     -0.03096436      0.12056872      0.22041332      0.00468663      0.01304967      0.00042068
    2
 MD step:        5050 time   12.215365848850251     
 H     -0.47447655     -0.06571837     -0.45634986     -0.04455567     -0.00781276     -0.01748879
 H     -0.03048562      0.12210981      0.22032888      0.00321739      0.01242920     -0.00183286
    2
 MD step:        5100 time   12.336310065175500     
 H     -0.47977271     -0.06662415     -0.45832431     -0.04301309     -0.00716062     -0.01514860
 H     -0.03018908      0.12357391      0.21996648      0.00167482      0.01177705     -0.00417304
    2
 MD step:        5150 time   12.457254281500751     
 H     -0.48487837     -0.06744935     -0.46001129     -0.04140736     -0.00648145     -0.01273780
 H     -0.03008304      0.12495745      0.21931663      0.00006909      0.01109789     -0.00658385
    2
 MD step:        5200 time   12.578198497826001     
 H     -0.48978659     -0.06819110     -0.46140319     -0.03974970     -0.00578121     -0.01027128
 H     -0.03017445      0.12625752      0.21837168     -0.00158858      0.01039765     -0.00905036
    2
 MD step:        5250 time   12.699142714151250     
 H     -0.49449152     -0.06884696     -0.46249410     -0.03804642     -0.00506130     -0.00776268
 H     -0.03046915      0.12747172      0.21712575     -0.00329185      0.00967773     -0.01155897
    2
 MD step:        5300 time   12.820086930476501     
 H     -0.49898807     -0.06941470     -0.46327973     -0.03630567     -0.00432490     -0.00522525
 H     -0.03097222      0.12859779      0.21557454     -0.00503261      0.00894134     -0.01409639
    2
 MD step:        5350 time   12.941031146801750     
 H     -0.50327238     -0.06989269     -0.46375739     -0.03453832     -0.00357802     -0.00267189
 H     -0.03168754      0.12963411      0.21371535     -0.00679996      0.00819445     -0.01664975
    2
 MD step:        5400 time   13.061975363127001     
 H     -0.50734170     -0.07027985     -0.46392588     -0.03275143     -0.00282294     -0.00011479
 H     -0.03261784      0.13057960      0.21154701     -0.00858685      0.00743937     -0.01920685
    2
 MD step:        5450 time   13.182919579452250     
 H     -0.51119402     -0.07057525     -0.46378546     -0.03095127     -0.00206138      0.00243465
 H     -0.03376515      0.13143333      0.20906975     -0.01038700      0.00667781     -0.02175630
    2
 MD step:        5500 time   13.303863795777501     
 H     -0.51482836     -0.07077846     -0.46333773     -0.02914843     -0.00129928      0.00496510
 H     -0.03513044      0.13219487      0.20628518     -0.01218984      0.00591571     -0.02428675
    2
 MD step:        5550 time   13.424808012102751     
 H     -0.51824491     -0.07088964     -0.46258570     -0.02735093     -0.00053974      0.00746483
 H     -0.03671351      0.13286438      0.20319630     -0.01398734      0.00515617     -0.02678648
    2
 MD step:        5600 time   13.545752228428000     
 H     -0.52144471     -0.07090918     -0.46153379     -0.02556562      0.00021551      0.00992196
 H     -0.03851333      0.13344225      0.19980755     -0.01577265      0.00440093     -0.02924360
    2
 MD step:        5650 time   13.666696444753251     
 H     -0.52442990     -0.07083794     -0.46018791     -0.02380412      0.00096031      0.01232406
 H     -0.04052777      0.13392934      0.19612483     -0.01753416      0.00365613     -0.03164571
    2
 MD step:        5700 time   13.787640661078500     
 H     -0.52720402     -0.07067750     -0.45855548     -0.02207656      0.00169026      0.01465840
 H     -0.04275327      0.13432723      0.19215555     -0.01926171      0.00292618     -0.03398004
    2
 MD step:        5750 time   13.908584877403751     
 H     -0.52977167     -0.07042977     -0.45664548     -0.02039138      0.00240307      0.01691167
 H     -0.04518525      0.13463783      0.18790872     -0.02094689      0.00221336     -0.03623332
    2
 MD step:        5800 time   14.029529093729000     
 H     -0.53213869     -0.07009716     -0.45446857     -0.01876154      0.00309242      0.01906981