    2
 MD step:           0 time   0.0000000000000000     
 H      0.00000000      0.00000000     -0.37000000     -0.02178316     -0.00179305      0.02453932
 H      0.00000000      0.00000000      0.37000000     -0.02974290      0.02993937     -0.02727167
    2
 MD step:          50 time  0.12094421632525000     
 H     -0.00263454     -0.00021688     -0.36704463     -0.02178297     -0.00179388      0.02428494
 H     -0.00359724      0.00362102      0.36671417     -0.02974310      0.02994020     -0.02701729
    2
 MD step:         100 time  0.24188843265050000     
 H     -0.00526901     -0.00043406     -0.36413706     -0.02178188     -0.00179850      0.02374888
 H     -0.00719455      0.00724233      0.36347614     -0.02974419      0.02994481     -0.02648123
    2
 MD step:         150 time  0.36283264897575002     
 H     -0.00790326     -0.00065221     -0.36131153     -0.02177912     -0.00181027      0.02292800
 H     -0.01079208      0.01086461      0.36032015     -0.02974695      0.02995659     -0.02566035
    2
 MD step:         200 time  0.48377686530100000     
 H     -0.01053703     -0.00087249     -0.35860253     -0.02177390     -0.00183325      0.02182222
 H     -0.01439009      0.01448902      0.35728068     -0.02975217      0.02997956     -0.02455457
    2
 MD step:         250 time  0.60472108162625005     
 H     -0.01316998     -0.00109645     -0.35604431     -0.02176543     -0.00187151      0.02043559
 H     -0.01798892      0.01811712      0.35439200     -0.02976063      0.03001783     -0.02316794
    2
 MD step:         300 time  0.72566529795150003     
 H     -0.01580167     -0.00132605     -0.35367036     -0.02175297     -0.00192793      0.01877719
 H     -0.02158900      0.02175085      0.35168759     -0.02977309      0.03007424     -0.02150954
    2
 MD step:         350 time  0.84660951427675002     
 H     -0.01843159     -0.00156349     -0.35151269     -0.02173585     -0.00200357      0.01686178
 H     -0.02519087      0.02539243      0.34919946     -0.02979021      0.03014988     -0.01959413
    2
 MD step:         400 time  0.96755373060200001     
 H     -0.02105911     -0.00181121     -0.34960123     -0.02171350     -0.00209878      0.01470983
 H     -0.02879512      0.02904428      0.34695753     -0.02981257      0.03024509     -0.01744218
    2
 MD step:         450 time   1.0884979469272500     
 H     -0.02368360     -0.00207177     -0.34796305     -0.02168549     -0.00221483      0.01234721
 H     -0.03240241      0.03270898      0.34498890     -0.02984057      0.03036114     -0.01507956
    2
 MD step:         500 time   1.2094421632525001     
 H     -0.02630435     -0.00234795     -0.34662184     -0.02165159     -0.00235452      0.00980455
 H     -0.03601345      0.03638929      0.34331722     -0.02987447      0.03050084     -0.01253690
    2
 MD step:         550 time   1.3303863795777500     
 H     -0.02892063     -0.00264265     -0.34559730     -0.02161173     -0.00252055      0.00711678
 H     -0.03962894      0.04008812      0.34196222     -0.02991433      0.03066687     -0.00984913
    2
 MD step:         600 time   1.4513305959030001     
 H     -0.03153174     -0.00295890     -0.34490467     -0.02156610     -0.00271297      0.00432261
 H     -0.04324961      0.04380851      0.34093913     -0.02995997      0.03085929     -0.00705496
    2
 MD step:         650 time   1.5722748122282502     
 H     -0.03413700     -0.00329963     -0.34455431     -0.02151508     -0.00292821      0.00146400
 H     -0.04687613      0.04755338      0.34025831     -0.03001098      0.03107453     -0.00419635
    2
 MD step:         700 time   1.6932190285535000     
 H     -0.03673580     -0.00366744     -0.34455137     -0.02145934     -0.00316091     -0.00141502
 H     -0.05050911      0.05132531      0.33992490     -0.03006672      0.03130722     -0.00131733
    2
 MD step:         750 time   1.8141632448787501     
 H     -0.03932761     -0.00406441     -0.34489562     -0.02139973     -0.00340695     -0.00426997
 H     -0.05414908      0.05512642      0.33993869     -0.03012634      0.03155327      0.00153762
    2
 MD step:         800 time   1.9351074612040000     
 H     -0.04191203     -0.00449213     -0.34558152     -0.02133729     -0.00366457     -0.00705772
 H     -0.05779644      0.05895827      0.34029413     -0.03018877      0.03181089      0.00432537
    2
 MD step:         850 time   2.0560516775292501     
 H     -0.04448879     -0.00495170     -0.34659844     -0.02127322     -0.00393217     -0.00973740
 H     -0.06145146      0.06282198      0.34098059     -0.03025284      0.03207848      0.00700505
    2
 MD step:         900 time   2.1769958938545000     
 H     -0.04705777     -0.00544379     -0.34793099     -0.02120883     -0.00420521     -0.01227103
 H     -0.06511426      0.06671820      0.34198268     -0.03031723      0.03235153      0.00953868
    2
 MD step:         950 time   2.2979401101797499     
 H     -0.04961901     -0.00596847     -0.34955937     -0.02114552     -0.00447554     -0.01462378
 H     -0.06878481      0.07064702      0.34328060     -0.03038054      0.03262186      0.01189143
    2
 MD step:        1000 time   2.4188843265050002     
 H     -0.05217273     -0.00652516     -0.35145978     -0.02108474     -0.00473425     -0.01676474
 H     -0.07246286      0.07460784      0.34485055     -0.03044132      0.03288057      0.01403239
    2
 MD step:        1050 time   2.5398285428302501     
 H     -0.05471932     -0.00711245     -0.35360500     -0.02102791     -0.00497539     -0.01866827
 H     -0.07614805      0.07859926      0.34666530     -0.03049815      0.03312171      0.01593592
    2
 MD step:        1100 time   2.6607727591554999     
 H     -0.05725935     -0.00772815     -0.35596503     -0.02097638     -0.00519670     -0.02031443
 H     -0.07983980      0.08261910      0.34869487     -0.03054969      0.03334302      0.01758208
    2
 MD step:        1150 time   2.7817169754807503     
 H     -0.05979353     -0.00836943     -0.35850790     -0.02093135     -0.00539673     -0.02168995
 H     -0.08353740      0.08666451      0.35090727     -0.03059471      0.03354305      0.01895760
    2
 MD step:        1200 time   2.9026611918060001     
 H     -0.06232270     -0.00903297     -0.36120036     -0.02089388     -0.00557122     -0.02278730
 H     -0.08724000      0.09073218      0.35326928     -0.03063218      0.03371753      0.02005495
    2
 MD step:        1250 time   3.0236054081312500     
 H     -0.06484785     -0.00971516     -0.36400859     -0.02086487     -0.00571308     -0.02360390
 H     -0.09094663      0.09481851      0.35574704     -0.03066119      0.03385940      0.02087155
    2
 MD step:        1300 time   3.1445496244565003     
 H     -0.06737004     -0.01041219     -0.36689866     -0.02084505     -0.00581638     -0.02414124
 H     -0.09465622      0.09891967      0.35830665     -0.03068101      0.03396270      0.02140889
    2
 MD step:        1350 time   3.2654938407817502     
 H     -0.06989043     -0.01111996     -0.36983700     -0.02083502     -0.00588044     -0.02440380
 H     -0.09836762      0.10303158      0.36091453     -0.03069104      0.03402676      0.02167145
    2
 MD step:        1400 time   3.3864380571070001     
 H     -0.07241021     -0.01183403     -0.37279085     -0.02083520     -0.00590935     -0.02440000
 H     -0.10207962      0.10714978      0.36353792     -0.03069086      0.03405567      0.02166765
    2
 MD step:        1450 time   3.5073822734322500     
 H     -0.07493065     -0.01254964     -0.37572862     -0.02084590     -0.00590595     -0.02413955
 H     -0.10579096      0.11126952      0.36614523     -0.03068017      0.03405226      0.02140720
    2
 MD step:        1500 time   3.6283264897575003     
 H     -0.07745302     -0.01326185     -0.37862011     -0.02086719     -0.00586705     -0.02363592
 H     -0.10950037      0.11538587      0.36870625     -0.03065887      0.03401336      0.02090357
    2
 MD step:        1550 time   3.7492707060827501     
 H     -0.07997860     -0.01396589     -0.38143689     -0.02089900     -0.00578501     -0.02290552
 H     -0.11320657      0.11949404      0.37119257     -0.03062706      0.03393133      0.02017317
    2
 MD step:        1600 time   3.8702149224080000     
 H     -0.08250865     -0.01465727     -0.38415242     -0.02094112     -0.00565585     -0.02196532
 H     -0.11690829      0.12358956      0.37357764     -0.03058494      0.03380216      0.01923297
    2
 MD step:        1650 time   3.9911591387332503     
 H     -0.08504442     -0.01533171     -0.38674231     -0.02099321     -0.00548615     -0.02083373
 H     -0.12060431      0.12766813      0.37583707     -0.03053285      0.03363246      0.01810138
    2
 MD step:        1700 time   4.1121033550585002     
 H     -0.08758708     -0.01598498     -0.38918445     -0.02105495     -0.00528908     -0.01952711
 H     -0.12429343      0.13172554      0.37794875     -0.03047111      0.03343540      0.01679476
    2
 MD step:        1750 time   4.2330475713837501     
 H     -0.09013775     -0.01661290     -0.39145912     -0.02112578     -0.00507329     -0.01806564
 H     -0.12797453      0.13575759      0.37989296     -0.03040029      0.03321960      0.01533329
    2
 MD step:        1800 time   4.3539917877090000     
 H     -0.09269748     -0.01721165     -0.39354921     -0.02120492     -0.00483411     -0.01647182
 H     -0.13164658      0.13976047      0.38165258     -0.03032114      0.03298042      0.01373947
    2
 MD step:        1850 time   4.4749360040342498     
 H     -0.09526723     -0.01777810     -0.39543989     -0.02129147     -0.00456008     -0.01476967
 H     -0.13530861      0.14373106      0.38321279     -0.03023460      0.03270639      0.01203732
    2
 MD step:        1900 time   4.5958802203594997     
 H     -0.09784787     -0.01830993     -0.39711894     -0.02138439     -0.00424995     -0.01298323
 H     -0.13895975      0.14766702      0.38456139     -0.03014168      0.03239626      0.01025088
    2
 MD step:        1950 time   4.7168244366847505     
 H     -0.10044014     -0.01880524     -0.39857678     -0.02148312     -0.00391995     -0.01112657
 H     -0.14259926      0.15156647      0.38568876     -0.03004295      0.03206627      0.00839422
    2
 MD step:        2000 time   4.8377686530100004     
 H     -0.10304468     -0.01926224     -0.39980662     -0.02158682     -0.00359447     -0.00921789
 H     -0.14622651      0.15542760      0.38658814     -0.02993925      0.03174079      0.00648554
    2
 MD step:        2050 time   4.9587128693352502     
 H     -0.10566193     -0.01967936     -0.40080476     -0.02169432     -0.00328255     -0.00728047
 H     -0.14984103      0.15924885      0.38725582     -0.02983174      0.03142886      0.00454812
    2
 MD step:        2100 time   5.0796570856605001     
 H     -0.10829225     -0.02005576     -0.40156984     -0.02180371     -0.00297100     -0.00534923
 H     -0.15344249      0.16302939      0.38769044     -0.02972236      0.03111732      0.00261688
    2
 MD step:        2150 time   5.2006013019857500     
 H     -0.11093582     -0.02039193     -0.40210332     -0.02191286     -0.00264271     -0.00346021
 H     -0.15703070      0.16676969      0.38789346     -0.02961321      0.03078903      0.00072786
    2
 MD step:        2200 time   5.3215455183109999     
 H     -0.11359266     -0.02068945     -0.40240922     -0.02202096     -0.00230089     -0.00162513
 H     -0.16060564      0.17047135      0.38786890     -0.02950510      0.03044721     -0.00110722
    2
 MD step:        2250 time   5.4424897346362506     
 H     -0.11626260     -0.02095047     -0.40249493     -0.02212741     -0.00197874      0.00014781
 H     -0.16416747      0.17413650      0.38762415     -0.02939866      0.03012505     -0.00288016
    2
 MD step:        2300 time   5.5634339509615005     
 H     -0.11894522     -0.02117728     -0.40237164     -0.02223148     -0.00171012      0.00184862
 H     -0.16771664      0.17776744      0.38717039     -0.02929459      0.02985643     -0.00458097
    2
 MD step:        2350 time   5.6843781672867504     
 H     -0.12163989     -0.02137260     -0.40205307     -0.02233018     -0.00150289      0.00343172
 H     -0.17125375      0.18136689      0.38652136     -0.02919589      0.02964920     -0.00616407
    2
 MD step:        2400 time   5.8053223836120003     
 H     -0.12434579     -0.02154067     -0.40155594     -0.02241940     -0.00133492      0.00483661
 H     -0.17477962      0.18493910      0.38569377     -0.02910666      0.02948123     -0.00756896
    2
 MD step:        2450 time   5.9262665999372501     
 H     -0.12706195     -0.02168748     -0.40089861     -0.02249689     -0.00118253      0.00603532
 H     -0.17829524      0.18849005      0.38470598     -0.02902918      0.02932885     -0.00876767
    2
 MD step:        2500 time   6.0472108162625000     
 H     -0.12978713     -0.02182068     -0.40010290     -0.02256211     -0.00105972      0.00702756
 H     -0.18180184      0.19202738      0.38357980     -0.02896395      0.02920603     -0.00975991
    2
 MD step:        2550 time   6.1681550325877499     
 H     -0.13251979     -0.02194853     -0.39919443     -0.02261687     -0.00100907      0.00784666
 H     -0.18530096      0.19555936      0.38234087     -0.02890920      0.02915538     -0.01057901
    2
 MD step:        2600 time   6.2890992489130007     
 H     -0.13525814     -0.02207937     -0.39820168     -0.02265964     -0.00107599      0.00847538
 H     -0.18879439      0.19909434      0.38101766     -0.02886642      0.02922231     -0.01120773
    2
 MD step:        2650 time   6.4100434652382505     
 H     -0.13800014     -0.02222242     -0.39715584     -0.02268608     -0.00126584      0.00885661
 H     -0.19228418      0.20264152      0.37964136     -0.02883998      0.02941215     -0.01158896
    2
 MD step:        2700 time   6.5309876815635004     
 H     -0.14074370     -0.02238809     -0.39608736     -0.02269087     -0.00154693      0.00892364
 H     -0.19577239      0.20621132      0.37824242     -0.02883519      0.02969324     -0.01165599
    2
 MD step:        2750 time   6.6519318978887503     
 H     -0.14348662     -0.02258888     -0.39502781     -0.02267094     -0.00189137      0.00864512
 H     -0.19926125      0.20981625      0.37685240     -0.02885513      0.03003768     -0.01137747
    2
 MD step:        2800 time   6.7728761142140002     
 H     -0.14622660     -0.02283823     -0.39400879     -0.02263005     -0.00229976      0.00808485
 H     -0.20275305      0.21346973      0.37550292     -0.02889602      0.03044608     -0.01081720
    2
 MD step:        2850 time   6.8938203305392500     
 H     -0.14896119     -0.02314941     -0.39306315     -0.02257229     -0.00281660      0.00730693
 H     -0.20625024      0.21718505      0.37422682     -0.02895378      0.03096291     -0.01003928
    2
 MD step:        2900 time   7.0147645468644999     
 H     -0.15168780     -0.02353490     -0.39222445     -0.02250149     -0.00347481      0.00636799
 H     -0.20975541      0.22097468      0.37305766     -0.02902457      0.03162112     -0.00910034
    2
 MD step:        2950 time   7.1357087631897507     
 H     -0.15440399     -0.02400595     -0.39152288     -0.02241479     -0.00427392      0.00523435
 H     -0.21327100      0.22484986      0.37202563     -0.02911128      0.03242024     -0.00796670
    2
 MD step:        3000 time   7.2566529795150005     
 H     -0.15710750     -0.02457406     -0.39098577     -0.02230672     -0.00517095      0.00384216
 H     -0.21679927      0.22882210      0.37115806     -0.02921935      0.03331727     -0.00657451
    2
 MD step:        3050 time   7.3775971958402504     
 H     -0.15979653     -0.02525014     -0.39063341     -0.02217566     -0.00611420      0.00218028
 H     -0.22034202      0.23290231      0.37047523     -0.02935040      0.03426051     -0.00491263
    2
 MD step:        3100 time   7.4985414121655003     
 H     -0.16246950     -0.02604473     -0.39048288     -0.02202519     -0.00709451      0.00030336
 H     -0.22390083      0.23710104      0.36999425     -0.02950087      0.03524083     -0.00303571
    2
 MD step:        3150 time   7.6194856284907502     
 H     -0.16512503     -0.02696631     -0.39054808     -0.02186828     -0.00812516     -0.00162260
 H     -0.22747708      0.24142675      0.36972898     -0.02965778      0.03627148     -0.00110975
    2
 MD step:        3200 time   7.7404298448160000     
 H     -0.16776192     -0.02802074     -0.39084083     -0.02171300     -0.00923717     -0.00349975
 H     -0.23107197      0.24588532      0.36969127     -0.02981306      0.03738348      0.00076740
    2
 MD step:        3250 time   7.8613740611412499     
 H     -0.17037898     -0.02921248     -0.39137167     -0.02156036     -0.01041937     -0.00531966
 H     -0.23468668      0.25048119      0.36989165     -0.02996571      0.03856568      0.00258731
    2
 MD step:        3300 time   7.9823182774665007     
 H     -0.17297562     -0.03054450     -0.39214435     -0.02139977     -0.01163558     -0.00720877
 H     -0.23832183      0.25521734      0.37033386     -0.03012630      0.03978190      0.00447642
    2
 MD step:        3350 time   8.1032624937917497     
 H     -0.17555147     -0.03202055     -0.39315936     -0.02122022     -0.01285389     -0.00929090
 H     -0.24197775      0.26009753      0.37101841     -0.03030584      0.04100020      0.00655855
    2
 MD step:        3400 time   8.2242067101170004     
 H     -0.17810651     -0.03364395     -0.39441383     -0.02102781     -0.01405757     -0.01148885
 H     -0.24565450      0.26512506      0.37194242     -0.03049826      0.04220388      0.00875650
    2
 MD step:        3450 time   8.3451509264422494     
 H     -0.18064017     -0.03541847     -0.39591092     -0.02083797     -0.01527790     -0.01362551
 H     -0.24935262      0.27030372      0.37310905     -0.03068809      0.04342421      0.01089316
    2
 MD step:        3500 time   8.4660951427675002     
 H     -0.18315090     -0.03734878     -0.39766461     -0.02066039     -0.01655035     -0.01559820
 H     -0.25307366      0.27563816      0.37453227     -0.03086568      0.04469667      0.01286586
    2
 MD step:        3550 time   8.5870393590927510     
 H     -0.18563679     -0.03943937     -0.39969276     -0.02046935     -0.01793424     -0.01769573
 H     -0.25681956      0.28113288      0.37622997     -0.03105671      0.04608056      0.01496338
    2
 MD step:        3600 time   8.7079835754179999     
 H     -0.18809580     -0.04169621     -0.40201363     -0.02022551     -0.01944722     -0.02033898
 H     -0.26059233      0.28679386      0.37822037     -0.03130056      0.04759354      0.01760663
    2
 MD step:        3650 time   8.8289277917432507     
 H     -0.19052588     -0.04412670     -0.40464564     -0.01993539     -0.02097349     -0.02344028
 H     -0.26439402      0.29262848      0.38052192     -0.03159067      0.04911980      0.02070793
    2
 MD step:        3700 time   8.9498720080684997     
 H     -0.19292272     -0.04674468     -0.40763117     -0.01964303     -0.02241312     -0.02652543
 H     -0.26822897      0.29865060      0.38317699     -0.03188304      0.05055944      0.02379308
    2
 MD step:        3750 time   9.0708162243937505     
 H     -0.19527918     -0.04956725     -0.41104074     -0.01933698     -0.02395211     -0.02972104
 H     -0.27210429      0.30487730      0.38625610     -0.03218908      0.05209843      0.02698869
    2
 MD step:        3800 time   9.1917604407189994     
 H     -0.19758973     -0.05259644     -0.41492637     -0.01892487     -0.02591417     -0.03397661
 H     -0.27602551      0.31131062      0.38981127     -0.03260120      0.05406048      0.03124426
    2
 MD step:        3850 time   9.3127046570442502     
 H     -0.19985168     -0.05582271     -0.41931044     -0.01843315     -0.02789316     -0.03899082
 H     -0.27999534      0.31794103      0.39386487     -0.03309291      0.05603947      0.03625847
    2
 MD step:        3900 time   9.4336488733695010     
 H     -0.20205935     -0.05925612     -0.42424567     -0.01801649     -0.02915251     -0.04319263
 H     -0.28401945      0.32477857      0.39846964     -0.03350958      0.05729882      0.04046028
    2
 MD step:        3950 time   9.5545930896947500     
 H     -0.20420757     -0.06290323     -0.42977757     -0.01758930     -0.03048485     -0.04746261
 H     -0.28810301      0.33182981      0.40367108     -0.03393676      0.05863117      0.04473026
    2
 MD step:        4000 time   9.6755373060200007     
 H     -0.20630425     -0.06671047     -0.43582122     -0.01709199     -0.03239091     -0.05237881
 H     -0.29223811      0.33904119      0.40938427     -0.03443408      0.06053722      0.04964646
    2
 MD step:        4050 time   9.7964815223452497     
 H     -0.20835736     -0.07064983     -0.44229401     -0.01680817     -0.03331079     -0.05515441
 H     -0.29641678      0.34638468      0.41552659     -0.03471789      0.06145711      0.05242206
    2
 MD step:        4100 time   9.9174257386705005     
 H     -0.21037315     -0.07473523     -0.44913041     -0.01661447     -0.03391253     -0.05703652
 H     -0.30063277      0.35387422      0.42203253     -0.03491159      0.06205885      0.05430417
    2
 MD step:        4150 time   10.038369954995749     
 H     -0.21237281     -0.07891137     -0.45612253     -0.01643853     -0.03502387     -0.05872644
 H     -0.30486488      0.36145449      0.42869419     -0.03508753      0.06317019      0.05599409
    2
 MD step:        4200 time   10.159314171321000     
 H     -0.21436253     -0.08317593     -0.46321019     -0.01646573     -0.03558523     -0.05846745
 H     -0.30910695      0.36912319      0.43545139     -0.03506034      0.06373154      0.05573510
    2
 MD step:        4250 time   10.280258387646251     
 H     -0.21634654     -0.08752776     -0.47035174     -0.01636918     -0.03642347     -0.05938050
 H     -0.31335472      0.37687915      0.44226248     -0.03515689      0.06456978      0.05664815
    2
 MD step:        4300 time   10.401202603971500     
 H     -0.21832815     -0.09194221     -0.47751603     -0.01633792     -0.03660961     -0.05967109
 H     -0.31760489      0.38469774      0.44909631     -0.03518814      0.06475592      0.05693874
    2
 MD step:        4350 time   10.522146820296751     
 H     -0.22029095     -0.09643760     -0.48485568     -0.01618287     -0.03727162     -0.06111503
 H     -0.32187387      0.39259726      0.45610549     -0.03534320      0.06541794      0.05838268
    2
 MD step:        4400 time   10.643091036622000     
 H     -0.22224220     -0.10092507     -0.49230229     -0.01600676     -0.03755177     -0.06273773
 H     -0.32615440      0.40048887      0.46322165     -0.03551931      0.06569808      0.06000538
    2
 MD step:        4450 time   10.764035252947250     
 H     -0.22416826     -0.10548019     -0.49998062     -0.01592314     -0.03734650     -0.06350650
 H     -0.33046011      0.40844812      0.47056951     -0.03560293      0.06549282      0.06077415
    2
 MD step:        4500 time   10.884979469272501     
 H     -0.22609065     -0.11003276     -0.50769246     -0.01582759     -0.03806517     -0.06437480
 H     -0.33476950      0.41640482      0.47795088     -0.03569848      0.06621148      0.06164245
    2
 MD step:        4550 time   11.005923685597750     
 H     -0.22800576     -0.11464669     -0.51547064     -0.01589578     -0.03822896     -0.06375993
 H     -0.33908618      0.42442289      0.48539861     -0.03563028      0.06637527      0.06102758
    2
 MD step:        4600 time   11.126867901923001     
 H     -0.22993099     -0.11927686     -0.52315744     -0.01588449     -0.03845758     -0.06385977
 H     -0.34339273      0.43245719      0.49275495     -0.03564158      0.06660390      0.06112742
    2
 MD step:        4650 time   11.247812118248250     
 H     -0.23185017     -0.12395502     -0.53089840     -0.01590950     -0.03840657     -0.06363805
 H     -0.34770532      0.44053948      0.50016545     -0.03561656      0.06655289      0.06090570
    2
 MD step:        4700 time   11.368756334573501     
 H     -0.23377519     -0.12855148     -0.53858740     -0.01585193     -0.03817020     -0.06414706
 H     -0.35201209      0.44854007      0.50752398     -0.03567414      0.06631652      0.06141471
    2
 MD step:        4750 time   11.489700550898750     
 H     -0.23568790     -0.13316345     -0.54638529     -0.01585750     -0.03764225     -0.06409992
 H     -0.35633115      0.45655618      0.51499141     -0.03566857      0.06578857      0.06136757
    2
 MD step:        4800 time   11.610644767224001     
 H     -0.23761446     -0.13769943     -0.55406146     -0.01595544     -0.03762352     -0.06323952
 H     -0.36063637      0.46449629      0.52233711     -0.03557063      0.06576984      0.06050717
    2
 MD step:        4850 time   11.731588983549251     
 H     -0.23954427     -0.14225997     -0.56170920     -0.01599645     -0.03776992     -0.06288260
 H     -0.36493834      0.47246096      0.52965439     -0.03552962      0.06591624      0.06015025
    2
 MD step:        4900 time   11.852533199874500     
 H     -0.24149182     -0.14678244     -0.56920263     -0.01618102     -0.03684250     -0.06127965
 H     -0.36922257      0.48038758      0.53681736     -0.03534504      0.06498882      0.05854730
    2
 MD step:        4950 time   11.973477416199751     
 H     -0.24344406     -0.15124546     -0.57665520     -0.01609908     -0.03702436     -0.06198735
 H     -0.37350212      0.48825472      0.54393947     -0.03542699      0.06517068      0.05925500
    2
 MD step:        5000 time   12.094421632525000     
 H     -0.24540046     -0.15563434     -0.58407216     -0.01628598     -0.03555498     -0.06038155
 H     -0.37777749      0.49604774      0.55102597     -0.03524008      0.06370130      0.05764920
    2
 MD step:        5050 time   12.215365848850251     
 H     -0.24737595     -0.15993331     -0.59132530     -0.01634968     -0.03558529     -0.05983596
 H     -0.38203378      0.50375085      0.55794865     -0.03517638      0.06373161      0.05710361
    2
 MD step:        5100 time   12.336310065175500     
 H     -0.24935915     -0.16422784     -0.59851272     -0.01649252     -0.03536156     -0.05862055
 H     -0.38628236      0.51144951      0.56480561     -0.03503354      0.06350788      0.05588820
    2
 MD step:        5150 time   12.457254281500751     
 H     -0.25136918     -0.16842481     -0.60547227     -0.01669926     -0.03405296     -0.05686705
 H     -0.39050411      0.51905062      0.57143470     -0.03482680      0.06219928      0.05413470
    2
 MD step:        5200 time   12.578198497826001     
 H     -0.25338577     -0.17254732     -0.61237604     -0.01666094     -0.03402318     -0.05719073
 H     -0.39471930      0.52657726      0.57800800     -0.03486512      0.06216950      0.05445838
    2
 MD step:        5250 time   12.699142714151250     
 H     -0.25541391     -0.17656575     -0.61918288     -0.01691014     -0.03253026     -0.05509681
 H     -0.39892294      0.53399983      0.58448438     -0.03461592      0.06067658      0.05236446
    2
 MD step:        5300 time   12.820086930476501     
 H     -0.25747042     -0.18047944     -0.62575156     -0.01705746     -0.03222098     -0.05386300
 H     -0.40309820      0.54131766      0.59072260     -0.03446860      0.06036731      0.05113065
    2
 MD step:        5350 time   12.941031146801750     
 H     -0.25953758     -0.18436965     -0.63223134     -0.01715834     -0.03202760     -0.05302256
 H     -0.40726283      0.54861200      0.59687192     -0.03436772      0.06017392      0.05029021
    2
 MD step:        5400 time   13.061975363127001     
 H     -0.26162998     -0.18813014     -0.63850123     -0.01743111     -0.03007280     -0.05075727
 H     -0.41140221      0.55577662      0.60281134     -0.03409495      0.05821913      0.04802492
    2
 MD step:        5450 time   13.182919579452250     
 H     -0.26374141     -0.19174610     -0.64461316     -0.01746173     -0.02987575     -0.05050361
 H     -0.41552255      0.56279671      0.60859281     -0.03406433      0.05802208      0.04777126
    2
 MD step:        5500 time   13.303863795777501     
 H     -0.26586211     -0.19531039     -0.65064874     -0.01766042     -0.02902089     -0.04886701
 H     -0.41963364      0.56976514      0.61429793     -0.03386565      0.05716722      0.04613466
    2
 MD step:        5550 time   13.424808012102751     
 H     -0.26801786     -0.19875886     -0.65639604     -0.01795973     -0.02787851     -0.04640889
 H     -0.42370967      0.57661775      0.61971476     -0.03356634      0.05602484      0.04367654
    2
 MD step:        5600 time   13.545752228428000     
 H     -0.27019345     -0.20209578     -0.66198054     -0.01798755     -0.02755156     -0.04618078
 H     -0.42776586      0.58335881      0.62496881     -0.03353851      0.05569788      0.04344843
    2
 MD step:        5650 time   13.666696444753251     
 H     -0.27237747     -0.20535648     -0.66749629     -0.01819101     -0.02600481     -0.04452285
 H     -0.43181362      0.59002364      0.63015409     -0.03333505      0.05415113      0.04179050
    2
 MD step:        5700 time   13.787640661078500     
 H     -0.27459663     -0.20842829     -0.67272608     -0.01847319     -0.02506300     -0.04222965
 H     -0.43582624      0.59649958      0.63505343     -0.03305287      0.05320933      0.03949730
    2
 MD step:        5750 time   13.908584877403751     
 H     -0.27683752     -0.21143185     -0.67777946     -0.01856657     -0.02469954     -0.04147330
 H     -0.43981712      0.60290728      0.63977634     -0.03295950      0.05284586      0.03874095
    2
 MD step:        5800 time   14.029529093729000     
 H     -0.27909285     -0.21437876     -0.68271622     -0.01877934     -0.02353450     -0.03975671