    2
 MD step:           0 time   0.0000000000000000     
 H      0.00000000      0.00000000     -0.37000000     -0.00386017      0.00776991     -0.01396275
 H      0.00000000      0.00000000      0.37000000      0.00124558     -0.00137276      0.00615164
    2
 MD step:          50 time  0.12094421632525000     
 H     -0.00046862      0.00093973     -0.37169680     -0.00393033      0.00777002     -0.01415512
 H      0.00015240     -0.00016603      0.37075210      0.00131573     -0.00137286      0.00634401
    2
 MD step:         100 time  0.24188843265050000     
 H     -0.00095375      0.00187950     -0.37343369     -0.00404074      0.00777067     -0.01454804
 H      0.00032131     -0.00033210      0.37154427      0.00142614     -0.00137351      0.00673693
    2
 MD step:         150 time  0.36283264897575002     
 H     -0.00145818      0.00281939     -0.37522998     -0.00431596      0.00777187     -0.01514924
 H      0.00050952     -0.00049829      0.37239586      0.00170136     -0.00137471      0.00733813
    2
 MD step:         200 time  0.48377686530100000     
 H     -0.00198317      0.00375938     -0.37707181     -0.00440052      0.00777200     -0.01526997
 H      0.00071829     -0.00066458      0.37329298      0.00178592     -0.00137484      0.00745886
    2
 MD step:         250 time  0.60472108162625005     
 H     -0.00252364      0.00469925     -0.37891005     -0.00449580      0.00776980     -0.01504022
 H      0.00094254     -0.00083075      0.37418651      0.00188120     -0.00137265      0.00722911
    2
 MD step:         300 time  0.72566529795150003     
 H     -0.00306868      0.00563876     -0.38070444     -0.00455863      0.00776648     -0.01469149
 H      0.00117136     -0.00099656      0.37503619      0.00194403     -0.00136932      0.00688038
    2
 MD step:         350 time  0.84660951427675002     
 H     -0.00363148      0.00657791     -0.38247552     -0.00468937      0.00776411     -0.01457102
 H      0.00141794     -0.00116202      0.37586256      0.00207478     -0.00136695      0.00675992
    2
 MD step:         400 time  0.96755373060200001     
 H     -0.00421280      0.00751683     -0.38424208     -0.00496707      0.00776206     -0.01466429
 H      0.00168304     -0.00132723      0.37668442      0.00235247     -0.00136491      0.00685318
    2
 MD step:         450 time   1.0884979469272500     
 H     -0.00481749      0.00845535     -0.38599890     -0.00505338      0.00775690     -0.01433914
 H      0.00197151     -0.00149206      0.37749653      0.00243879     -0.00135974      0.00652804
    2
 MD step:         500 time   1.2094421632525001     
 H     -0.00543950      0.00939292     -0.38770091     -0.00517934      0.00774625     -0.01369915
 H      0.00227730     -0.00165592      0.37825383      0.00256475     -0.00134909      0.00588804
    2
 MD step:         550 time   1.3303863795777500     
 H     -0.00606669      0.01032893     -0.38930229     -0.00522307      0.00773205     -0.01281376
 H      0.00258827     -0.00181824      0.37891051      0.00260847     -0.00133489      0.00500266
    2
 MD step:         600 time   1.4513305959030001     
 H     -0.00670866      0.01126324     -0.39081140     -0.00534433      0.00771854     -0.01212468
 H      0.00291402     -0.00197885      0.37947490      0.00272973     -0.00132138      0.00431358
    2
 MD step:         650 time   1.5722748122282502     
 H     -0.00736514      0.01219607     -0.39224967     -0.00559022      0.00770713     -0.01174101
 H      0.00325427     -0.00213798      0.37996847      0.00297563     -0.00130998      0.00392990
    2
 MD step:         700 time   1.6932190285535000     
 H     -0.00804791      0.01312748     -0.39363887     -0.00569253      0.00769428     -0.01118639
 H      0.00362083     -0.00229569      0.38041295      0.00307793     -0.00129712      0.00337528
    2
 MD step:         750 time   1.8141632448787501     
 H     -0.00875206      0.01405693     -0.39495304     -0.00588648      0.00767438     -0.01043123
 H      0.00400876     -0.00245144      0.38078242      0.00327188     -0.00127722      0.00262013
    2
 MD step:         800 time   1.9351074612040000     
 H     -0.00946466      0.01498350     -0.39614272     -0.00593009      0.00764691     -0.00924619
 H      0.00440513     -0.00260431      0.38102739      0.00331549     -0.00124975      0.00143508
    2
 MD step:         850 time   2.0560516775292501     
 H     -0.01018860      0.01590653     -0.39719037     -0.00600936      0.00761695     -0.00806298
 H      0.00481285     -0.00275364      0.38113033      0.00339477     -0.00121979      0.00025187
    2
 MD step:         900 time   2.1769958938545000     
 H     -0.01091969      0.01682611     -0.39810374     -0.00616422      0.00759044     -0.00716295
 H      0.00522772     -0.00289952      0.38109899      0.00354963     -0.00119329     -0.00064816
    2
 MD step:         950 time   2.2979401101797499     
 H     -0.01167441      0.01774271     -0.39892538     -0.00627175      0.00756767     -0.00641180
 H      0.00566622     -0.00304243      0.38097593      0.00365716     -0.00117051     -0.00139931
    2
 MD step:        1000 time   2.4188843265050002     
 H     -0.01245183      0.01865648     -0.39966588     -0.00654874      0.00754234     -0.00578335
 H      0.00612743     -0.00318250      0.38077172      0.00393415     -0.00114518     -0.00202775
    2
 MD step:        1050 time   2.5398285428302501     
 H     -0.01324531      0.01956677     -0.40030099     -0.00662362      0.00750876     -0.00471642
 H      0.00660469     -0.00331908      0.38046212      0.00400903     -0.00111161     -0.00309469
    2
 MD step:        1100 time   2.6607727591554999     
 H     -0.01405315      0.02047243     -0.40079715     -0.00668733      0.00746680     -0.00341746
 H      0.00709630     -0.00345105      0.38001358      0.00407273     -0.00106964     -0.00439364
    2
 MD step:        1150 time   2.7817169754807503     
 H     -0.01486285      0.02137284     -0.40112820     -0.00675230      0.00742342     -0.00213480
 H      0.00758978     -0.00357776      0.37939991      0.00413770     -0.00102626     -0.00567631
    2
 MD step:        1200 time   2.9026611918060001     
 H     -0.01568705      0.02226831     -0.40132353     -0.00682497      0.00738621     -0.00109957
 H      0.00809776     -0.00369953      0.37865053      0.00421038     -0.00098905     -0.00671153
    2
 MD step:        1250 time   3.0236054081312500     
 H     -0.01652732      0.02315976     -0.40141757     -0.00710062      0.00735553     -0.00049992
 H      0.00862182     -0.00381728      0.37779987      0.00448602     -0.00095837     -0.00731119
    2
 MD step:        1300 time   3.1445496244565003     
 H     -0.01738924      0.02404760     -0.40143230     -0.00719866      0.00732474      0.00024505
 H      0.00916751     -0.00393141      0.37686989      0.00458407     -0.00092758     -0.00805616
    2
 MD step:        1350 time   3.2654938407817502     
 H     -0.01827295      0.02493119     -0.40135503     -0.00733111      0.00728517      0.00115476
 H      0.00973500     -0.00404131      0.37584791      0.00471651     -0.00088801     -0.00896586
    2
 MD step:        1400 time   3.3864380571070001     
 H     -0.01916104      0.02580940     -0.40114314     -0.00738628      0.00723668      0.00233002
 H      0.01030688     -0.00414582      0.37469131      0.00477168     -0.00083952     -0.01014113
    2
 MD step:        1450 time   3.5073822734322500     
 H     -0.02005781      0.02668169     -0.40079221     -0.00740839      0.00718900      0.00347494
 H      0.01088742     -0.00424441      0.37339568      0.00479379     -0.00079185     -0.01128604
    2
 MD step:        1500 time   3.6283264897575003     
 H     -0.02096103      0.02754882     -0.40032354     -0.00759390      0.00715214      0.00416081
 H      0.01147442     -0.00433784      0.37198230      0.00497930     -0.00075498     -0.01197191
    2
 MD step:        1550 time   3.7492707060827501     
 H     -0.02188411      0.02841219     -0.39978741     -0.00768343      0.00712630      0.00466110
 H      0.01208128     -0.00442752      0.37050146      0.00506883     -0.00072914     -0.01247220
    2
 MD step:        1600 time   3.8702149224080000     
 H     -0.02283192      0.02927250     -0.39920725     -0.00790710      0.00709973      0.00502303
 H      0.01271287     -0.00451412      0.36897659      0.00529250     -0.00070257     -0.01283413
    2
 MD step:        1650 time   3.9911591387332503     
 H     -0.02379099      0.03012908     -0.39855754     -0.00799804      0.00706348      0.00570491
 H      0.01335572     -0.00459700      0.36738217      0.00538345     -0.00066632     -0.01351601
    2
 MD step:        1700 time   4.1121033550585002     
 H     -0.02476092      0.03098082     -0.39781733     -0.00800959      0.00702142      0.00656201
 H      0.01400943     -0.00467504      0.36569725      0.00539499     -0.00062426     -0.01437312
    2
 MD step:        1750 time   4.2330475713837501     
 H     -0.02573271      0.03182782     -0.39698250     -0.00812117      0.00698770      0.00712594
 H      0.01466500     -0.00474834      0.36391772      0.00550657     -0.00059054     -0.01493705
    2
 MD step:        1800 time   4.3539917877090000     
 H     -0.02672061      0.03267174     -0.39610293     -0.00819967      0.00697117      0.00736918
 H      0.01533668     -0.00481857      0.36209344      0.00558507     -0.00057401     -0.01518029
    2
 MD step:        1850 time   4.4749360040342498     
 H     -0.02773205      0.03351440     -0.39522264     -0.00847565      0.00696428      0.00722294
 H      0.01603190     -0.00488753      0.36026844      0.00586106     -0.00056712     -0.01503405
    2
 MD step:        1900 time   4.5958802203594997     
 H     -0.02876086      0.03435605     -0.39434103     -0.00859299      0.00695175      0.00733402
 H      0.01674448     -0.00495547      0.35844213      0.00597839     -0.00055459     -0.01514512
    2
 MD step:        1950 time   4.7168244366847505     
 H     -0.02980513      0.03519557     -0.39343676     -0.00863491      0.00693031      0.00767195
 H      0.01747254     -0.00502130      0.35659315      0.00602031     -0.00053315     -0.01548306
    2
 MD step:        2000 time   4.8377686530100004     
 H     -0.03085198      0.03603266     -0.39249247     -0.00872890      0.00691519      0.00783920
 H      0.01820317     -0.00508469      0.35470415      0.00611431     -0.00051803     -0.01565031
    2
 MD step:        2050 time   4.9587128693352502     
 H     -0.03191568      0.03686912     -0.39155422     -0.00883023      0.00692127      0.00763697
 H      0.01895065     -0.00514745      0.35282119      0.00621564     -0.00052412     -0.01544807
    2
 MD step:        2100 time   5.0796570856605001     
 H     -0.03300384      0.03770743     -0.39067064     -0.00914100      0.00694238      0.00698284
 H      0.01972259     -0.00521206      0.35099290      0.00652640     -0.00054522     -0.01479395
    2
 MD step:        2150 time   5.2006013019857500     
 H     -0.03411423      0.03854817     -0.38984841     -0.00927023      0.00695843      0.00659913
 H      0.02051676     -0.00527910      0.34922597      0.00665563     -0.00056127     -0.01441024
    2
 MD step:        2200 time   5.3215455183109999     
 H     -0.03524287      0.03939018     -0.38906442     -0.00935337      0.00696491      0.00641598
 H      0.02132918     -0.00534741      0.34749727      0.00673878     -0.00056775     -0.01422708
    2
 MD step:        2250 time   5.4424897346362506     
 H     -0.03637769      0.04023328     -0.38830315     -0.00947193      0.00698110      0.00605538
 H      0.02214777     -0.00541682      0.34579129      0.00685734     -0.00058394     -0.01386649
    2
 MD step:        2300 time   5.5634339509615005     
 H     -0.03753604      0.04107983     -0.38761618     -0.00963941      0.00702219      0.00528858
 H      0.02298990     -0.00548967      0.34415961      0.00702481     -0.00062503     -0.01309968
    2
 MD step:        2350 time   5.6843781672867504     
 H     -0.03872355      0.04193234     -0.38704416     -0.00998223      0.00707532      0.00418980
 H      0.02386120     -0.00556847      0.34264288      0.00736763     -0.00067817     -0.01200091
    2
 MD step:        2400 time   5.8053223836120003     
 H     -0.03993641      0.04279071     -0.38657993     -0.01010624      0.00711661      0.00349290
 H      0.02475784     -0.00565315      0.34123394      0.00749164     -0.00071945     -0.01130400
    2
 MD step:        2450 time   5.9262665999372501     
 H     -0.04116786      0.04365344     -0.38619395     -0.01023666      0.00715087      0.00289960
 H      0.02567307     -0.00574217      0.33990326      0.00762207     -0.00075371     -0.01071071
    2
 MD step:        2500 time   6.0472108162625000     
 H     -0.04241232      0.04452119     -0.38588796     -0.01041963      0.00720404      0.00201663
 H      0.02660131     -0.00583622      0.33865256      0.00780503     -0.00080688     -0.00982773
    2
 MD step:        2550 time   6.1681550325877499     
 H     -0.04369130      0.04539695     -0.38572063     -0.01066885      0.00728055      0.00078404
 H      0.02756406     -0.00593829      0.33754052      0.00805425     -0.00088339     -0.00859515
    2
 MD step:        2600 time   6.2890992489130007     
 H     -0.04500327      0.04628205     -0.38570484     -0.01100358      0.00735320     -0.00046264
 H      0.02855982     -0.00604969      0.33658002      0.00838899     -0.00095604     -0.00734847
    2
 MD step:        2650 time   6.4100434652382505     
 H     -0.04633935      0.04717471     -0.38580704     -0.01110395      0.00740649     -0.00121606
 H      0.02957967     -0.00616865      0.33573751      0.00848935     -0.00100933     -0.00659505
    2
 MD step:        2700 time   6.5309876815635004     
 H     -0.04769459      0.04807376     -0.38600579     -0.01131222      0.00746417     -0.00211372
 H      0.03061870     -0.00629400      0.33499155      0.00869762     -0.00106701     -0.00569738
    2
 MD step:        2750 time   6.6519318978887503     
 H     -0.04907344      0.04898128     -0.38632801     -0.01157754      0.00754714     -0.00334798
 H      0.03168133     -0.00642781      0.33436907      0.00896294     -0.00114998     -0.00446313
    2
 MD step:        2800 time   6.7728761142140002     
 H     -0.05049531      0.04989956     -0.38681763     -0.01185608      0.00763596     -0.00464089
 H      0.03278698     -0.00657240      0.33391398      0.00924148     -0.00123880     -0.00317021
    2
 MD step:        2850 time   6.8938203305392500     
 H     -0.05194656      0.05082733     -0.38744378     -0.01212165      0.00770169     -0.00564068
 H      0.03392200     -0.00672647      0.33359542      0.00950705     -0.00130453     -0.00217042
    2
 MD step:        2900 time   7.0147645468644999     
 H     -0.05341804      0.05176185     -0.38816484     -0.01221012      0.00775247     -0.00628335
 H      0.03507726     -0.00688729      0.33337177      0.00959553     -0.00135531     -0.00152776
    2
 MD step:        2950 time   7.1357087631897507     
 H     -0.05491202      0.05270338     -0.38898387     -0.01251141      0.00782095     -0.00731526
 H      0.03625502     -0.00705512      0.33324610      0.00989681     -0.00142379     -0.00049585
    2
 MD step:        3000 time   7.2566529795150005     
 H     -0.05643803      0.05365439     -0.38993508     -0.01280352      0.00790550     -0.00849072
 H      0.03746481     -0.00723243      0.33325260      0.01018893     -0.00150834      0.00067962
    2
 MD step:        3050 time   7.3775971958402504     
 H     -0.05800586      0.05461493     -0.39102663     -0.01303684      0.00797242     -0.00940899
 H      0.03871643     -0.00741927      0.33339944      0.01042225     -0.00157526      0.00159788
    2
 MD step:        3100 time   7.4985414121655003     
 H     -0.05959332      0.05558153     -0.39219927     -0.01321424      0.00800809     -0.00994401
 H      0.03998766     -0.00761217      0.33362737      0.01059965     -0.00161093      0.00213290
    2
 MD step:        3150 time   7.6194856284907502     
 H     -0.06119775      0.05655189     -0.39342614     -0.01330161      0.00804048     -0.01034886
 H      0.04127587     -0.00780883      0.33390953      0.01068702     -0.00164332      0.00253775
    2
 MD step:        3200 time   7.7404298448160000     
 H     -0.06282606      0.05752742     -0.39472705     -0.01364252      0.00809390     -0.01120298
 H      0.04258796     -0.00801066      0.33426573      0.01102792     -0.00169675      0.00339188
    2
 MD step:        3250 time   7.8613740611412499     
 H     -0.06448669      0.05850985     -0.39612595     -0.01388227      0.00814832     -0.01195572
 H      0.04393237     -0.00821940      0.33471992      0.01126767     -0.00175116      0.00414461
    2
 MD step:        3300 time   7.9823182774665007     
 H     -0.06618074      0.05949710     -0.39760325     -0.01404389      0.00816992     -0.01231749
 H      0.04531020     -0.00843294      0.33525252      0.01142929     -0.00177276      0.00450639
    2
 MD step:        3350 time   8.1032624937917497     
 H     -0.06788359      0.06048480     -0.39909367     -0.01413504      0.00816068     -0.01232522
 H      0.04669683     -0.00864695      0.33579823      0.01152044     -0.00176352      0.00451412
    2
 MD step:        3400 time   8.2242067101170004     
 H     -0.06959814      0.06147122     -0.40058427     -0.01418801      0.00815424     -0.01232070
 H      0.04809516     -0.00885967      0.33634412      0.01157342     -0.00175708      0.00450960
    2
 MD step:        3450 time   8.3451509264422494     
 H     -0.07133064      0.06245816     -0.40209730     -0.01449233      0.00816760     -0.01274145
 H      0.04951144     -0.00907291      0.33691245      0.01187773     -0.00177044      0.00493035
    2
 MD step:        3500 time   8.4660951427675002     
 H     -0.07308973      0.06344682     -0.40365185     -0.01464616      0.00817654     -0.01297221
 H      0.05095431     -0.00928787      0.33752229      0.01203156     -0.00177938      0.00516110
    2
 MD step:        3550 time   8.5870393590927510     
 H     -0.07487360      0.06443455     -0.40522334     -0.01475733      0.00814948     -0.01285646
 H      0.05242196     -0.00950190      0.33814907      0.01214273     -0.00175233      0.00504535
    2
 MD step:        3600 time   8.7079835754179999     
 H     -0.07665689      0.06541664     -0.40674742     -0.01475813      0.00808771     -0.01234734
 H      0.05388903     -0.00971029      0.33872844      0.01214353     -0.00169055      0.00453623
    2
 MD step:        3650 time   8.8289277917432507     
 H     -0.07844191      0.06639084     -0.40820861     -0.01472347      0.00802449     -0.01179957
 H      0.05535783     -0.00991079      0.33924492      0.01210887     -0.00162733      0.00398847
    2
 MD step:        3700 time   8.9498720080684997     
 H     -0.08023103      0.06735869     -0.40962278     -0.01492227      0.00798266     -0.01166471
 H      0.05683073     -0.01010494      0.33971438      0.01230767     -0.00158550      0.00385361
    2
 MD step:        3750 time   9.0708162243937505     
 H     -0.08203822      0.06832222     -0.41102086     -0.01499304      0.00794836     -0.01146689
 H      0.05832170     -0.01029477      0.34016775      0.01237844     -0.00155121      0.00365578
    2
 MD step:        3800 time   9.1917604407189994     
 H     -0.08386478      0.06928008     -0.41239435     -0.01510843      0.00788544     -0.01109789
 H      0.05983204     -0.01047894      0.34059654      0.01249384     -0.00148828      0.00328679
    2
 MD step:        3850 time   9.3127046570442502     
 H     -0.08568657      0.07022781     -0.41368570     -0.01505117      0.00778119     -0.01025122
 H      0.06133760     -0.01065296      0.34094318      0.01243657     -0.00138403      0.00244012
    2
 MD step:        3900 time   9.4336488733695010     
 H     -0.08750020      0.07116151     -0.41486361     -0.01490152      0.00765890     -0.00919050
 H      0.06283502     -0.01081296      0.34117638      0.01228692     -0.00126174      0.00137939
    2
 MD step:        3950 time   9.5545930896947500     
 H     -0.08929909      0.07208112     -0.41592264     -0.01492121      0.00755220     -0.00842801
 H      0.06431769     -0.01095888      0.34129070      0.01230662     -0.00115505      0.00061690
    2
 MD step:        4000 time   9.6755373060200007     
 H     -0.09110129      0.07298933     -0.41690198     -0.01488518      0.00747055     -0.00780301
 H      0.06580367     -0.01109338      0.34132534      0.01227058     -0.00107339     -0.00000810
    2
 MD step:        4050 time   9.7964815223452497     
 H     -0.09291582      0.07388788     -0.41782468     -0.01504553      0.00738758     -0.00737479
 H      0.06730198     -0.01121824      0.34130333      0.01243093     -0.00099042     -0.00043632
    2
 MD step:        4100 time   9.9174257386705005     
 H     -0.09472952      0.07477495     -0.41866572     -0.01500670      0.00727373     -0.00654163
 H      0.06879945     -0.01133161      0.34119966      0.01239211     -0.00087657     -0.00126947
    2
 MD step:        4150 time   10.038369954995749     
 H     -0.09653679      0.07564586     -0.41938855     -0.01481384      0.00712279     -0.00531198
 H      0.07029051     -0.01142882      0.34097778      0.01219924     -0.00072564     -0.00249912
    2
 MD step:        4200 time   10.159314171321000     
 H     -0.09831653      0.07649735     -0.41995150     -0.01466113      0.00695901     -0.00405159
 H      0.07175403     -0.01150661      0.34059602      0.01204653     -0.00056186     -0.00375951
    2
 MD step:        4250 time   10.280258387646251     
 H     -0.10007880      0.07732999     -0.42037043     -0.01446369      0.00681638     -0.00290428
 H      0.07320008     -0.01156555      0.34007025      0.01184909     -0.00041922     -0.00490682
    2
 MD step:        4300 time   10.401202603971500     
 H     -0.10183473      0.07814731     -0.42068179     -0.01456852      0.00670227     -0.00226111
 H      0.07463979     -0.01160917      0.33943690      0.01195393     -0.00030511     -0.00554999
    2
 MD step:        4350 time   10.522146820296751     
 H     -0.10359061      0.07895188     -0.42091014     -0.01454829      0.00659832     -0.00157043
 H      0.07607944     -0.01164004      0.33872054      0.01193369     -0.00020117     -0.00624067
    2
 MD step:        4400 time   10.643091036622000     
 H     -0.10535244      0.07974246     -0.42105497     -0.01447655      0.00646971     -0.00068195
 H      0.07752506     -0.01165693      0.33792066      0.01186195     -0.00007255     -0.00712916
    2
 MD step:        4450 time   10.764035252947250     
 H     -0.10709366      0.08051510     -0.42106613     -0.01433659      0.00630239      0.00050425
 H      0.07895005     -0.01165586      0.33698712      0.01172199      0.00009477     -0.00831536
    2
 MD step:        4500 time   10.884979469272501     
 H     -0.10880972      0.08126634     -0.42091941     -0.01401974      0.00612133      0.00193609
 H      0.08034989     -0.01163341      0.33589569      0.01140514      0.00027582     -0.00974719
    2
 MD step:        4550 time   11.005923685597750     
 H     -0.11049787      0.08199673     -0.42061729     -0.01393448      0.00596206      0.00298732
 H      0.08172182     -0.01159010      0.33464886      0.01131988      0.00043510     -0.01079842
    2
 MD step:        4600 time   11.126867901923001     
 H     -0.11217219      0.08271028     -0.42019995     -0.01381889      0.00584410      0.00380741
 H      0.08307992     -0.01152995      0.33328680      0.01120430      0.00055306     -0.01161851
    2
 MD step:        4650 time   11.247812118248250     
 H     -0.11385346      0.08341081     -0.41971243     -0.01388544      0.00574322      0.00433390
 H      0.08444497     -0.01145678      0.33185458      0.01127084      0.00065393     -0.01214501
    2
 MD step:        4700 time   11.368756334573501     
 H     -0.11552993      0.08409859     -0.41914574     -0.01389475      0.00562458      0.00501092
 H      0.08580522     -0.01137086      0.33034319      0.01128015      0.00077258     -0.01282202
    2
 MD step:        4750 time   11.489700550898750     
 H     -0.11719796      0.08477007     -0.41847708     -0.01364500      0.00547327      0.00612238
 H      0.08715703     -0.01126864      0.32872982      0.01103041      0.00092389     -0.01393348
    2
 MD step:        4800 time   11.610644767224001     
 H     -0.11883742      0.08542191     -0.41766890     -0.01347413      0.00530698      0.00722592
 H      0.08848027     -0.01114678      0.32697693      0.01085954      0.00109018     -0.01503702
    2
 MD step:        4850 time   11.731588983549251     
 H     -0.12045087      0.08605483     -0.41672937     -0.01323847      0.00516741      0.00823242
 H      0.08977751     -0.01100600      0.32509269      0.01062387      0.00122975     -0.01604353
    2
 MD step:        4900 time   11.852533199874500     
 H     -0.12205903      0.08667367     -0.41570733     -0.01331395      0.00507336      0.00866827
 H      0.09106944     -0.01085114      0.32312595      0.01069936      0.00132380     -0.01647938
    2
 MD step:        4950 time   11.973477416199751     
 H     -0.12366929      0.08728331     -0.41463777     -0.01341310      0.00500609      0.00892878
 H      0.09236348     -0.01068708      0.32111167      0.01079850      0.00139107     -0.01673989
    2
 MD step:        5000 time   12.094421632525000     
 H     -0.12529302      0.08788413     -0.41353495     -0.01335748      0.00492328      0.00941993
 H      0.09367099     -0.01051420      0.31906414      0.01074288      0.00147388     -0.01723104
    2
 MD step:        5050 time   12.215365848850251     
 H     -0.12690631      0.08847277     -0.41235810     -0.01330221      0.00480701      0.01007703
 H      0.09496806     -0.01032914      0.31694259      0.01068762      0.00159015     -0.01788813
    2
 MD step:        5100 time   12.336310065175500     
 H     -0.12850051      0.08904675     -0.41108693     -0.01307266      0.00468850      0.01091047
 H      0.09624604     -0.01012942      0.31472671      0.01045807      0.00170866     -0.01872157
    2
 MD step:        5150 time   12.457254281500751     
 H     -0.13008509      0.08960870     -0.40974527     -0.01313575      0.00461268      0.01122761
 H      0.09751440     -0.00991767      0.31244034      0.01052115      0.00178448     -0.01903872
    2
 MD step:        5200 time   12.578198497826001     
 H     -0.13167546      0.09016484     -0.40838041     -0.01327348      0.00458901      0.01120677
 H      0.09878855     -0.00970011      0.31013077      0.01065888      0.00180815     -0.01901788
    2
 MD step:        5250 time   12.699142714151250     
 H     -0.13329563      0.09071922     -0.40703675     -0.01342120      0.00457653      0.01111944
 H      0.10009249     -0.00948079      0.30784241      0.01080661      0.00182063     -0.01893055
    2
 MD step:        5300 time   12.820086930476501     
 H     -0.13492683      0.09127037     -0.40568871     -0.01354348      0.00453269      0.01120584
 H      0.10140748     -0.00925825      0.30554965      0.01092888      0.00186447     -0.01901695
    2
 MD step:        5350 time   12.941031146801750     
 H     -0.13655776      0.09181475     -0.40430837     -0.01342764      0.00447048      0.01161308
 H      0.10272219     -0.00902893      0.30322461      0.01081304      0.00192667     -0.01942418
    2
 MD step:        5400 time   13.061975363127001     
 H     -0.13818861      0.09235323     -0.40290053     -0.01357157      0.00444340      0.01159420
 H      0.10403682     -0.00879371      0.30087206      0.01095697      0.00195376     -0.01940531
    2
 MD step:        5450 time   13.182919579452250     
 H     -0.13983800      0.09289212     -0.40151301     -0.01380373      0.00447659      0.01121223
 H      0.10536999     -0.00855890      0.29853983      0.01118913      0.00192057     -0.01902333
    2
 MD step:        5500 time   13.303863795777501     
 H     -0.14153388      0.09343682     -0.40019798     -0.01413689      0.00452978      0.01064269
 H      0.10674965     -0.00832990      0.29628009      0.01152230      0.00186738     -0.01845380
    2
 MD step:        5550 time   13.424808012102751     
 H     -0.14325936      0.09398637     -0.39893395     -0.01440049      0.00455225      0.01028077
 H      0.10815890     -0.00810575      0.29407135      0.01178590      0.00184491     -0.01809187
    2
 MD step:        5600 time   13.545752228428000     
 H     -0.14500354      0.09453694     -0.39769309     -0.01443341      0.00455341      0.01024295
 H      0.10958687     -0.00788262      0.29188578      0.01181882      0.00184375     -0.01805405
    2
 MD step:        5650 time   13.666696444753251     
 H     -0.14676480      0.09508946     -0.39647749     -0.01474530      0.00459347      0.00976284
 H      0.11103190     -0.00766144      0.28972548      0.01213071      0.00180369     -0.01757395
    2
 MD step:        5700 time   13.787640661078500     
 H     -0.14856662      0.09565051     -0.39533797     -0.01513321      0.00469194      0.00896849
 H      0.11251751     -0.00744879      0.28764125      0.01251862      0.00170522     -0.01677959
    2
 MD step:        5750 time   13.908584877403751     
 H     -0.15043285      0.09622466     -0.39431643     -0.01561519      0.00479819      0.00805564
 H      0.11406751     -0.00724924      0.28567501      0.01300059      0.00159897     -0.01586675
    2
 MD step:        5800 time   14.029529093729000     
 H     -0.15234068      0.09680924     -0.39337844     -0.01594316      0.00486257      0.00747135