    2
 MD step:           0 time   0.0000000000000000     
 H      0.00000000      0.00000000     -0.37000000      0.00721556      0.03224865      0.00925736
 H      0.00000000      0.00000000      0.37000000     -0.01229040      0.01279127     -0.02629263
    2
 MD step:          50 time  0.12094421632525000     
 H      0.00087270      0.00389992     -0.36889320      0.00721601      0.03223541      0.00898808
 H     -0.00148647      0.00154740      0.36683288     -0.01229085      0.01280452     -0.02602335
    2
 MD step:         100 time  0.24188843265050000     
 H      0.00174554      0.00779678     -0.36783418      0.00721819      0.03221572      0.00851501
 H     -0.00297309      0.00309786      0.36371354     -0.01229303      0.01282421     -0.02555028
    2
 MD step:         150 time  0.36283264897575002     
 H      0.00261880      0.01169380     -0.36683855      0.00722308      0.03222521      0.00791931
 H     -0.00446012      0.00464816      0.36065760     -0.01229791      0.01281471     -0.02495458
    2
 MD step:         200 time  0.48377686530100000     
 H      0.00349290      0.01559142     -0.36592834      0.00723238      0.03222213      0.00707641
 H     -0.00594799      0.00619786      0.35768707     -0.01230721      0.01281780     -0.02411168
    2
 MD step:         250 time  0.60472108162625005     
 H      0.00436845      0.01948774     -0.36513380      0.00724699      0.03221955      0.00605889
 H     -0.00743731      0.00774886      0.35483221     -0.01232183      0.01282038     -0.02309417
    2
 MD step:         300 time  0.72566529795150003     
 H      0.00524610      0.02338570     -0.36446770      0.00726756      0.03223807      0.00492709
 H     -0.00892873      0.00929821      0.35210580     -0.01234240      0.01280186     -0.02196236
    2
 MD step:         350 time  0.84660951427675002     
 H      0.00612672      0.02728608     -0.36395183      0.00729626      0.03225668      0.00355856
 H     -0.01042312      0.01084515      0.34952961     -0.01237109      0.01278325     -0.02059383
    2
 MD step:         400 time  0.96755373060200001     
 H      0.00701127      0.03118845     -0.36361014      0.00733239      0.03228190      0.00209020
 H     -0.01192145      0.01239010      0.34712760     -0.01240722      0.01275803     -0.01912547
    2
 MD step:         450 time   1.0884979469272500     
 H      0.00790070      0.03509460     -0.36345166      0.00737722      0.03231483      0.00050802
 H     -0.01342465      0.01393127      0.34490880     -0.01245206      0.01272510     -0.01754329
    2
 MD step:         500 time   1.2094421632525001     
 H      0.00879614      0.03900610     -0.36349443      0.00743181      0.03236524     -0.00123840
 H     -0.01493386      0.01546709      0.34289125     -0.01250664      0.01267469     -0.01579687
    2
 MD step:         550 time   1.3303863795777500     
 H      0.00969865      0.04292366     -0.36375098      0.00749407      0.03241783     -0.00301391
 H     -0.01645015      0.01699685      0.34108749     -0.01256890      0.01262210     -0.01402136
    2
 MD step:         600 time   1.4513305959030001     
 H      0.01060928      0.04684714     -0.36422790      0.00756612      0.03247190     -0.00488003
 H     -0.01797454      0.01852068      0.33950409     -0.01264095      0.01256803     -0.01215524
    2
 MD step:         650 time   1.5722748122282502     
 H      0.01152912      0.05077958     -0.36493323      0.00764581      0.03255451     -0.00678103
 H     -0.01950816      0.02003557      0.33814910     -0.01272065      0.01248542     -0.01025424
    2
 MD step:         700 time   1.6932190285535000     
 H      0.01245896      0.05472143     -0.36586729      0.00773211      0.03262420     -0.00868403
 H     -0.02105177      0.02154104      0.33702284     -0.01280695      0.01241573     -0.00835125
    2
 MD step:         750 time   1.8141632448787501     
 H      0.01339972      0.05867118     -0.36703378      0.00782546      0.03270345     -0.01058738
 H     -0.02260630      0.02303860      0.33612902     -0.01290029      0.01233648     -0.00644789
    2
 MD step:         800 time   1.9351074612040000     
 H      0.01435196      0.06263271     -0.36842533      0.00792162      0.03280380     -0.01240834
 H     -0.02417231      0.02452439      0.33546025     -0.01299646      0.01223613     -0.00462693
    2
 MD step:         850 time   2.0560516775292501     
 H      0.01531605      0.06660522     -0.37003544      0.00802196      0.03288040     -0.01422516
 H     -0.02575017      0.02599920      0.33501004     -0.01309680      0.01215953     -0.00281012
    2
 MD step:         900 time   2.1769958938545000     
 H      0.01629238      0.07058709     -0.37186010      0.00812262      0.03297484     -0.01591271
 H     -0.02734028      0.02746465      0.33477438     -0.01319746      0.01206509     -0.00112256
    2
 MD step:         950 time   2.2979401101797499     
 H      0.01728072      0.07458117     -0.37387919      0.00822081      0.03307210     -0.01745885
 H     -0.02894239      0.02891789      0.33473316     -0.01329564      0.01196783      0.00042358
    2
 MD step:        1000 time   2.4188843265050002     
 H      0.01828091      0.07858593     -0.37608283      0.00831831      0.03314673     -0.01896481
 H     -0.03055635      0.03036045      0.33487648     -0.01339315      0.01189320      0.00192954
    2
 MD step:        1050 time   2.5398285428302501     
 H      0.01929246      0.08259988     -0.37845583      0.00840779      0.03323209     -0.02024085
 H     -0.03218167      0.03179382      0.33518916     -0.01348263      0.01180784      0.00320558
    2
 MD step:        1100 time   2.6607727591554999     
 H      0.02031439      0.08662365     -0.38097278      0.00849036      0.03330869     -0.02136147
 H     -0.03381737      0.03321736      0.33564580     -0.01356520      0.01173124      0.00432620
    2
 MD step:        1150 time   2.7817169754807503     
 H      0.02134590      0.09065603     -0.38361995      0.00856538      0.03336751     -0.02237982
 H     -0.03546266      0.03463231      0.33623264     -0.01364021      0.01167242      0.00534455
    2
 MD step:        1200 time   2.9026611918060001     
 H      0.02238562      0.09469504     -0.38637442      0.00862597      0.03342020     -0.02313922
 H     -0.03711615      0.03604062      0.33692680     -0.01370080      0.01161973      0.00610395
    2
 MD step:        1250 time   3.0236054081312500     
 H      0.02343200      0.09873930     -0.38921058      0.00867574      0.03346190     -0.02373820
 H     -0.03877630      0.03744367      0.33770265     -0.01375058      0.01157803      0.00670293
    2
 MD step:        1300 time   3.1445496244565003     
 H      0.02448362      0.10278830     -0.39211119      0.00871142      0.03348843     -0.02418713
 H     -0.04044170      0.03884200      0.33854293     -0.01378626      0.01155150      0.00715186
    2
 MD step:        1350 time   3.2654938407817502     
 H      0.02553841      0.10683924     -0.39505038      0.00872884      0.03349387     -0.02439271
 H     -0.04211026      0.04023837      0.33942181     -0.01380368      0.01154606      0.00735743
    2
 MD step:        1400 time   3.3864380571070001     
 H      0.02659447      0.11088945     -0.39800484      0.00873221      0.03348796     -0.02443671
 H     -0.04378008      0.04163548      0.34031595     -0.01380705      0.01155197      0.00740144
    2
 MD step:        1450 time   3.5073822734322500     
 H      0.02764992      0.11493896     -0.40095563      0.00871781      0.03346988     -0.02432221
 H     -0.04544931      0.04303329      0.34120642     -0.01379264      0.01157005      0.00728693
    2
 MD step:        1500 time   3.6283264897575003     
 H      0.02870234      0.11898449     -0.40387848      0.00868299      0.03342211     -0.02399132
 H     -0.04711550      0.04443508      0.34206895     -0.01375782      0.01161782      0.00695605
    2
 MD step:        1550 time   3.7492707060827501     
 H      0.02974963      0.12302260     -0.40675307      0.00863307      0.03336026     -0.02351761
 H     -0.04877657      0.04584428      0.34288323     -0.01370790      0.01167967      0.00648234
    2
 MD step:        1600 time   3.8702149224080000     
 H      0.03078980      0.12705367     -0.40956177      0.00856401      0.03329189     -0.02289892
 H     -0.05043051      0.04726054      0.34363161     -0.01363884      0.01174804      0.00586365
    2
 MD step:        1650 time   3.9911591387332503     
 H      0.03182028      0.13107443     -0.41228362      0.00847400      0.03319126     -0.02209373
 H     -0.05207476      0.04868710      0.34429314     -0.01354884      0.01184867      0.00505846
    2
 MD step:        1700 time   4.1121033550585002     
 H      0.03283897      0.13508110     -0.41490158      0.00836915      0.03307029     -0.02117395
 H     -0.05370722      0.05012774      0.34485079     -0.01344398      0.01196964      0.00413868
    2
 MD step:        1750 time   4.2330475713837501     
 H      0.03384398      0.13907408     -0.41740123      0.00824689      0.03295236     -0.02014345
 H     -0.05532600      0.05158208      0.34529012     -0.01332172      0.01208757      0.00310818
    2
 MD step:        1800 time   4.3539917877090000     
 H      0.03483294      0.14305068     -0.41976687      0.00810419      0.03280263     -0.01895610
 H     -0.05692873      0.05305280      0.34559544     -0.01317903      0.01223730      0.00192083
    2
 MD step:        1850 time   4.4749360040342498     
 H      0.03580379      0.14700727     -0.42198384      0.00794833      0.03262756     -0.01768811
 H     -0.05851335      0.05454353      0.34575210     -0.01302317      0.01241237      0.00065284
    2
 MD step:        1900 time   4.5958802203594997     
 H      0.03675501      0.15094384     -0.42404265      0.00777883      0.03246462     -0.01634944
 H     -0.06007835      0.05605428      0.34575059     -0.01285367      0.01257531     -0.00068584
    2
 MD step:        1950 time   4.7168244366847505     
 H      0.03768465      0.15485870     -0.42593358      0.00759109      0.03227154     -0.01489619
 H     -0.06162175      0.05758674      0.34558120     -0.01266592      0.01276839     -0.00213908
    2
 MD step:        2000 time   4.8377686530100004     
 H      0.03859078      0.15874882     -0.42764402      0.00739165      0.03205500     -0.01338020
 H     -0.06314166      0.05914394      0.34523132     -0.01246649      0.01298493     -0.00365507
    2
 MD step:        2050 time   4.9587128693352502     
 H      0.03947227      0.16261347     -0.42916861      0.00718354      0.03185272     -0.01183367
 H     -0.06463692      0.06072661      0.34469559     -0.01225838      0.01318721     -0.00520160
    2
 MD step:        2100 time   5.0796570856605001     
 H      0.04032788      0.16645222     -0.43050493      0.00696257      0.03162498     -0.01024221
 H     -0.06610630      0.06233518      0.34397159     -0.01203740      0.01341495     -0.00679306
    2
 MD step:        2150 time   5.2006013019857500     
 H      0.04115599      0.17026276     -0.43164338      0.00673074      0.03138396     -0.00858454
 H     -0.06754819      0.06397195      0.34304972     -0.01180558      0.01365597     -0.00845073
    2
 MD step:        2200 time   5.3215455183109999     
 H      0.04195584      0.17404413     -0.43258139      0.00649578      0.03115107     -0.00693592
 H     -0.06896181      0.06563791      0.34192742     -0.01157062      0.01388886     -0.01009935
    2
 MD step:        2250 time   5.4424897346362506     
 H      0.04272700      0.17779684     -0.43332293      0.00625501      0.03090167     -0.00531755
 H     -0.07034674      0.06733252      0.34060864     -0.01132985      0.01413826     -0.01171772
    2
 MD step:        2300 time   5.5634339509615005     
 H      0.04346847      0.18151912     -0.43386430      0.00600585      0.03065086     -0.00363662
 H     -0.07170198      0.06905755      0.33908970     -0.01108069      0.01438907     -0.01339865
    2
 MD step:        2350 time   5.6843781672867504     
 H      0.04417977      0.18521076     -0.43420378      0.00575725      0.03040099     -0.00198732
 H     -0.07302705      0.07081323      0.33736886     -0.01083209      0.01463894     -0.01504795
    2
 MD step:        2400 time   5.8053223836120003     
 H      0.04486124      0.18887264     -0.43434974      0.00551202      0.03014816     -0.00043733
 H     -0.07432230      0.07259867      0.33545451     -0.01058686      0.01489177     -0.01659794
    2
 MD step:        2450 time   5.9262665999372501     
 H      0.04551291      0.19250358     -0.43430764      0.00526384      0.02989870      0.00113901
 H     -0.07558774      0.07441505      0.33335208     -0.01033867      0.01514123     -0.01817428
    2
 MD step:        2500 time   6.0472108162625000     
 H      0.04613469      0.19610470     -0.43407642      0.00501967      0.02965377      0.00267214
 H     -0.07682329      0.07626124      0.33106055     -0.01009451      0.01538615     -0.01970741
    2
 MD step:        2550 time   6.1681550325877499     
 H      0.04672763      0.19967712     -0.43366735      0.00478718      0.02941720      0.00406558
 H     -0.07803000      0.07813615      0.32859115     -0.00986201      0.01562273     -0.02110085
    2
 MD step:        2600 time   6.2890992489130007     
 H      0.04729286      0.20322034     -0.43309430      0.00456002      0.02918252      0.00541750
 H     -0.07920900      0.08004025      0.32595779     -0.00963486      0.01585741     -0.02245277
    2
 MD step:        2650 time   6.4100434652382505     
 H      0.04783100      0.20673671     -0.43235933      0.00434128      0.02896633      0.00671944
 H     -0.08036092      0.08197120      0.32316250     -0.00941611      0.01607360     -0.02375471
    2
 MD step:        2700 time   6.5309876815635004     
 H      0.04834372      0.21022787     -0.43147520      0.00414104      0.02876521      0.00786252
 H     -0.08148741      0.08392735      0.32021806     -0.00921587      0.01627472     -0.02489779
    2
 MD step:        2750 time   6.6519318978887503     
 H      0.04883334      0.21369442     -0.43046273      0.00395732      0.02856693      0.00888090
 H     -0.08259081      0.08590812      0.31714527     -0.00903215      0.01647300     -0.02591617
    2
 MD step:        2800 time   6.7728761142140002     
 H      0.04930147      0.21713938     -0.42932915      0.00378730      0.02840160      0.00984162
 H     -0.08367270      0.08791048      0.31395137     -0.00886214      0.01663832     -0.02687689
    2
 MD step:        2850 time   6.8938203305392500     
 H      0.04975048      0.22056546     -0.42808893      0.00364321      0.02825763      0.01062433
 H     -0.08473549      0.08993172      0.31065083     -0.00871804      0.01678229     -0.02765960
    2
 MD step:        2900 time   7.0147645468644999     
 H      0.05018377      0.22397443     -0.42676721      0.00352509      0.02812107      0.01122406
 H     -0.08578255      0.09197007      0.30726880     -0.00859993      0.01691886     -0.02825933
    2
 MD step:        2950 time   7.1357087631897507     
 H      0.05060395      0.22736968     -0.42537652      0.00342799      0.02802733      0.01174561
 H     -0.08681650      0.09402213      0.30381779     -0.00850283      0.01701260     -0.02878088
    2
 MD step:        3000 time   7.2566529795150005     
 H      0.05101426      0.23075504     -0.42393339      0.00336362      0.02796171      0.01207470
 H     -0.08784058      0.09608410      0.30031434     -0.00843846      0.01707822     -0.02910997
    2
 MD step:        3050 time   7.3775971958402504     
 H      0.05141902      0.23413360     -0.42246566      0.00333443      0.02791338      0.01218059
 H     -0.08885912      0.09815286      0.29678629     -0.00840927      0.01712655     -0.02921586
    2
 MD step:        3100 time   7.4985414121655003     
 H      0.05182184      0.23750915     -0.42099005      0.00333258      0.02791017      0.01219037
 H     -0.08987571      0.10022462      0.29325037     -0.00840742      0.01712976     -0.02922564
    2
 MD step:        3150 time   7.6194856284907502     
 H      0.05222675      0.24088617     -0.41952505      0.00337099      0.02794393      0.01199095
 H     -0.09089439      0.10229492      0.28972505     -0.00844583      0.01709600     -0.02902622
    2
 MD step:        3200 time   7.7404298448160000     
 H      0.05263885      0.24426917     -0.41809946      0.00344879      0.02800414      0.01156736
 H     -0.09192026      0.10435924      0.28623914     -0.00852363      0.01703579     -0.02860263
    2
 MD step:        3250 time   7.8613740611412499     
 H      0.05306223      0.24766204     -0.41673087      0.00355948      0.02810543      0.01102944
 H     -0.09295741      0.10641369      0.28281024     -0.00863431      0.01693450     -0.02806471
    2
 MD step:        3300 time   7.9823182774665007     
 H      0.05350164      0.25106937     -0.41543958      0.00371480      0.02825215      0.01028319
 H     -0.09401059      0.10845368      0.27945863     -0.00878963      0.01678778     -0.02731846
    2
 MD step:        3350 time   8.1032624937917497     
 H      0.05396240      0.25449690     -0.41425207      0.00390945      0.02843212      0.00934220
 H     -0.09508512      0.11047347      0.27621080     -0.00898428      0.01660781     -0.02637748
    2
 MD step:        3400 time   8.2242067101170004     
 H      0.05444867      0.25794813     -0.41318459      0.00413953      0.02864084      0.00827374
 H     -0.09618517      0.11246956      0.27308300     -0.00921437      0.01639909     -0.02530901
    2
 MD step:        3450 time   8.3451509264422494     
 H      0.05496551      0.26142727     -0.41225765      0.00441388      0.02890494      0.00702466
 H     -0.09731578      0.11443773      0.27009574     -0.00948872      0.01613499     -0.02405994
    2
 MD step:        3500 time   8.4660951427675002     
 H      0.05551756      0.26494065     -0.41149072      0.00471914      0.02919764      0.00565042
 H     -0.09848160      0.11637167      0.26726849     -0.00979398      0.01584229     -0.02268569
    2
 MD step:        3550 time   8.5870393590927510     
 H      0.05610856      0.26849039     -0.41089744      0.00506075      0.02950400      0.00413132
 H     -0.09968637      0.11826926      0.26461490     -0.01013559      0.01553593     -0.02116659
    2
 MD step:        3600 time   8.7079835754179999     
 H      0.05674298      0.27208027     -0.41049447      0.00543440      0.02986951      0.00251833
 H     -0.10093457      0.12012669      0.26215161     -0.01050923      0.01517041     -0.01955360
    2
 MD step:        3650 time   8.8289277917432507     
 H      0.05742387      0.27571565     -0.41029061      0.00582870      0.03024887      0.00084228
 H     -0.10222922      0.12193863      0.25988743     -0.01090354      0.01479106     -0.01787755
    2
 MD step:        3700 time   8.9498720080684997     
 H      0.05815419      0.27939689     -0.41029726      0.00625238      0.03062964     -0.00096041
 H     -0.10357332      0.12370471      0.25783376     -0.01132722      0.01441029     -0.01607486
    2
 MD step:        3750 time   9.0708162243937505     
 H      0.05893662      0.28312712     -0.41052109      0.00668731      0.03105695     -0.00274138
 H     -0.10496953      0.12542180      0.25599728     -0.01176215      0.01398298     -0.01429389
    2
 MD step:        3800 time   9.1917604407189994     
 H      0.05977213      0.28690889     -0.41096079      0.00713241      0.03148130     -0.00454728
 H     -0.10641880      0.12708734      0.25437666     -0.01220724      0.01355863     -0.01248799
    2
 MD step:        3850 time   9.3127046570442502     
 H      0.06066233      0.29074134     -0.41162357      0.00758717      0.03189813     -0.00639072
 H     -0.10792278      0.12870222      0.25297912     -0.01266201      0.01314180     -0.01064455
    2
 MD step:        3900 time   9.4336488733695010     
 H      0.06160693      0.29462552     -0.41250196      0.00803245      0.03232788     -0.00812912
 H     -0.10948115      0.13026536      0.25179720     -0.01310729      0.01271205     -0.00890615
    2
 MD step:        3950 time   9.5545930896947500     
 H      0.06260517      0.29856093     -0.41358897      0.00847516      0.03274875     -0.00985461
 H     -0.11109317      0.13177727      0.25082389     -0.01354999      0.01229118     -0.00718066
    2
 MD step:        4000 time   9.6755373060200007     
 H      0.06365630      0.30254585     -0.41488239      0.00890123      0.03314809     -0.01149560
 H     -0.11275806      0.13323966      0.25005699     -0.01397606      0.01189183     -0.00553967
    2
 MD step:        4050 time   9.7964815223452497     
 H      0.06475735      0.30657795     -0.41636487      0.00930343      0.03352290     -0.01300563
 H     -0.11447288      0.13465488      0.24947915     -0.01437826      0.01151703     -0.00402964
    2
 MD step:        4100 time   9.9174257386705005     
 H      0.06590596      0.31065492     -0.41802515      0.00968581      0.03389049     -0.01443792
 H     -0.11623527      0.13602523      0.24907912     -0.01476065      0.01114944     -0.00259735
    2
 MD step:        4150 time   10.038369954995749     
 H      0.06709852      0.31477367     -0.41984945      0.01002788      0.03421374     -0.01569484
 H     -0.11804160      0.13735380      0.24884310     -0.01510272      0.01082619     -0.00134043
    2
 MD step:        4200 time   10.159314171321000     
 H      0.06833040      0.31892858     -0.42181740      0.01033757      0.03449024     -0.01682248
 H     -0.11988725      0.13864621      0.24875074     -0.01541241      0.01054969     -0.00021279
    2
 MD step:        4250 time   10.280258387646251     
 H      0.06959749      0.32311659     -0.42391226      0.01060783      0.03475593     -0.01779463
 H     -0.12176811      0.13990552      0.24878528     -0.01568267      0.01028400      0.00075935
    2
 MD step:        4300 time   10.401202603971500     
 H      0.07089412      0.32733304     -0.42611284      0.01082641      0.03496008     -0.01856924
 H     -0.12367851      0.14113638      0.24892554     -0.01590124      0.01007985      0.00153397
    2
 MD step:        4350 time   10.522146820296751     
 H      0.07221478      0.33157033     -0.42839958      0.01100567      0.03510818     -0.01921194
 H     -0.12561295      0.14234641      0.24915196     -0.01608051      0.00993175      0.00217667
    2
 MD step:        4400 time   10.643091036622000     
 H      0.07355411      0.33582508     -0.43075158      0.01113236      0.03523930     -0.01965130
 H     -0.12756604      0.14353898      0.24944364     -0.01620720      0.00980063      0.00261603
    2
 MD step:        4450 time   10.764035252947250     
 H      0.07490526      0.34009149     -0.43314473      0.01120403      0.03530181     -0.01990529
 H     -0.12953097      0.14471990      0.24977647     -0.01627887      0.00973812      0.00287002
    2
 MD step:        4500 time   10.884979469272501     
 H      0.07626254      0.34436131     -0.43556196      0.01123228      0.03530423     -0.02002923
 H     -0.13150202      0.14589739      0.25013339     -0.01630711      0.00973570      0.00299396
    2
 MD step:        4550 time   11.005923685597750     
 H      0.07761988      0.34863084     -0.43798064      0.01120390      0.03528797     -0.01993919
 H     -0.13347314      0.14707518      0.25049175     -0.01627873      0.00975196      0.00290392
    2
 MD step:        4600 time   11.126867901923001     
 H      0.07897037      0.35289427     -0.44037772      0.01112167      0.03520427     -0.01968541
 H     -0.13543740      0.14825907      0.25082851     -0.01619651      0.00983566      0.00265014
    2
 MD step:        4650 time   11.247812118248250     
 H      0.08030849      0.35714349     -0.44273885      0.01099833      0.03506017     -0.01932567
 H     -0.13738929      0.14945717      0.25112932     -0.01607317      0.00997976      0.00229040
    2
 MD step:        4700 time   11.368756334573501     
 H      0.08162847      0.36137478     -0.44504365      0.01082034      0.03490135     -0.01876206
 H     -0.13932304      0.15067319      0.25137381     -0.01589518      0.01013858      0.00172679
    2
 MD step:        4750 time   11.489700550898750     
 H      0.08292375      0.36558311     -0.44727105      0.01059286      0.03468140     -0.01805865
 H     -0.14123209      0.15191219      0.25154089     -0.01566770      0.01035853      0.00102338
    2
 MD step:        4800 time   11.610644767224001     
 H      0.08418940      0.36976107     -0.44940987      0.01032977      0.03440219     -0.01728407
 H     -0.14311152      0.15318154      0.25161939     -0.01540461      0.01063773      0.00024880
    2
 MD step:        4850 time   11.731588983549251     
 H      0.08542046      0.37390488     -0.45144408      0.01001981      0.03411683     -0.01633316
 H     -0.14495635      0.15448506      0.25159328     -0.01509465      0.01092310     -0.00070211
    2
 MD step:        4900 time   11.852533199874500     
 H      0.08661128      0.37801117     -0.45335582      0.00966603      0.03377950     -0.01526543
 H     -0.14676094      0.15582608      0.25144471     -0.01474087      0.01126043     -0.00176984
    2
 MD step:        4950 time   11.973477416199751     
 H      0.08775757      0.38207345     -0.45513616      0.00928499      0.03338869     -0.01416366
 H     -0.14852100      0.15721113      0.25116473     -0.01435983      0.01165124     -0.00287161
    2
 MD step:        5000 time   12.094421632525000     
 H      0.08885583      0.38608802     -0.45677587      0.00886963      0.03299871     -0.01293071
 H     -0.15023304      0.15864387      0.25074412     -0.01394447      0.01204122     -0.00410456
    2
 MD step:        5050 time   12.215365848850251     
 H      0.08990154      0.39005360     -0.45826049      0.00841725      0.03257094     -0.01160484
 H     -0.15189252      0.16012561      0.25016843     -0.01349209      0.01246899     -0.00543043
    2
 MD step:        5100 time   12.336310065175500     
 H      0.09089117      0.39396491     -0.45958293      0.00794531      0.03209947     -0.01026562
 H     -0.15349592      0.16166162      0.24943055     -0.01302015      0.01294046     -0.00676965
    2
 MD step:        5150 time   12.457254281500751     
 H      0.09182261      0.39781820     -0.46074019      0.00745316      0.03162680     -0.00885390
 H     -0.15504113      0.16325565      0.24852749     -0.01252800      0.01341313     -0.00818138
    2
 MD step:        5200 time   12.578198497826001     
 H      0.09269298      0.40161436     -0.46172269      0.00693558      0.03114115     -0.00738375
 H     -0.15652527      0.16490680      0.24744967     -0.01201042      0.01389878     -0.00965152
    2
 MD step:        5250 time   12.699142714151250     
 H      0.09349959      0.40534967     -0.46252528      0.00640285      0.03062149     -0.00589847
 H     -0.15794566      0.16661882      0.24619195     -0.01147769      0.01441844     -0.01113680
    2
 MD step:        5300 time   12.820086930476501     
 H      0.09424163      0.40902084     -0.46314946      0.00586684      0.03009531     -0.00441341
 H     -0.15930146      0.16839496      0.24475581     -0.01094168      0.01494462     -0.01262186
    2
 MD step:        5350 time   12.941031146801750     
 H      0.09491817      0.41263013     -0.46359192      0.00531868      0.02958434     -0.00290312
 H     -0.16059178      0.17023299      0.24313795     -0.01039352      0.01545559     -0.01413215
    2
 MD step:        5400 time   13.061975363127001     
 H      0.09552771      0.41617600     -0.46385062      0.00476159      0.02904979     -0.00138229
 H     -0.16181509      0.17213445      0.24133633     -0.00983643      0.01599014     -0.01565299
    2
 MD step:        5450 time   13.182919579452250     
 H      0.09607033      0.41965618     -0.46392880      0.00421290      0.02850523      0.00008977
 H     -0.16297148      0.17410158      0.23935420     -0.00928774      0.01653469     -0.01712504
    2
 MD step:        5500 time   13.303863795777501     
 H      0.09654700      0.42307314     -0.46382941      0.00366998      0.02799963      0.00154448
 H     -0.16406193      0.17613194      0.23719449     -0.00874482      0.01704030     -0.01857976
    2
 MD step:        5550 time   13.424808012102751     
 H      0.09695809      0.42642831     -0.46355572      0.00312828      0.02748332      0.00298197
 H     -0.16508678      0.17822409      0.23486048     -0.00820311      0.01755661     -0.02001724
    2
 MD step:        5600 time   13.545752228428000     
 H      0.09730449      0.42972083     -0.46311156      0.00260402      0.02696475      0.00435026
 H     -0.16604695      0.18037889      0.23235600     -0.00767886      0.01807518     -0.02138553
    2
 MD step:        5650 time   13.666696444753251     
 H      0.09758900      0.43295324     -0.46250562      0.00210397      0.02649555      0.00565515
 H     -0.16694524      0.18259380      0.22968975     -0.00717881      0.01854438     -0.02269042
    2
 MD step:        5700 time   13.787640661078500     
 H      0.09781400      0.43612972     -0.46174643      0.00161879      0.02603365      0.00689844
 H     -0.16778402      0.18486464      0.22687024     -0.00669363      0.01900628     -0.02393372
    2
 MD step:        5750 time   13.908584877403751     
 H      0.09798164      0.43925113     -0.46084007      0.00115973      0.02558445      0.00806745
 H     -0.16856542      0.18719055      0.22390356     -0.00623456      0.01945548     -0.02510272
    2
 MD step:        5800 time   14.029529093729000     
 H      0.09809609      0.44232041     -0.45979869      0.00073953      0.02518444      0.00913425