    2
 MD step:           0 time   0.0000000000000000     
 H      0.00000000      0.00000000     -0.37000000      0.00514254     -0.03489014      0.01437676
 H      0.00000000      0.00000000      0.37000000     -0.00885710      0.01765873     -0.02780131
    2
 MD step:          50 time  0.12094421632525000     
 H      0.00061796     -0.00421982     -0.36828095      0.00501316     -0.03489233      0.01386314
 H     -0.00106722      0.00213579      0.36665732     -0.00872773      0.01766092     -0.02728769
    2
 MD step:         100 time  0.24188843265050000     
 H      0.00122076     -0.00844080     -0.36668529      0.00484275     -0.03491417      0.01211036
 H     -0.00211927      0.00427272      0.36343805     -0.00855732      0.01768276     -0.02553491
    2
 MD step:         150 time  0.36283264897575002     
 H      0.00179114     -0.01266727     -0.36541956      0.00456023     -0.03499161      0.00835094
 H     -0.00313890      0.00641515      0.36054869     -0.00827479      0.01776020     -0.02177549
    2
 MD step:         200 time  0.48377686530100000     
 H      0.00230770     -0.01690810     -0.36474469      0.00411185     -0.03515908      0.00248107
 H     -0.00410472      0.00857194      0.35825020     -0.00782641      0.01792767     -0.01590562
    2
 MD step:         250 time  0.60472108162625005     
 H      0.00275343     -0.02117511     -0.36488333      0.00350995     -0.03542607     -0.00486652
 H     -0.00499970      0.01075492      0.35676522     -0.00722452      0.01819466     -0.00855803
    2
 MD step:         300 time  0.72566529795150003     
 H      0.00312239     -0.02547882     -0.36593644      0.00284352     -0.03575807     -0.01241173
 H     -0.00581793      0.01297458      0.35619470     -0.00655809      0.01852666     -0.00101282
    2
 MD step:         350 time  0.84660951427675002     
 H      0.00342184     -0.02982337     -0.36783949      0.00224360     -0.03608861     -0.01881977
 H     -0.00656662      0.01523509      0.35647414     -0.00595817      0.01885720      0.00539522
    2
 MD step:         400 time  0.96755373060200001     
 H      0.00366869     -0.03420432     -0.37039374      0.00182222     -0.03634606     -0.02317640
 H     -0.00726273      0.01753200      0.35740476     -0.00553679      0.01911465      0.00975184
    2
 MD step:         450 time   1.0884979469272500     
 H      0.00388247     -0.03861004     -0.37333967      0.00161626     -0.03649239     -0.02536664
 H     -0.00792576      0.01985369      0.35872707     -0.00533083      0.01926098      0.01194209
    2
 MD step:         500 time   1.2094421632525001     
 H      0.00407831     -0.04302722     -0.37645233      0.00156223     -0.03653957     -0.02599887
 H     -0.00857086      0.02218683      0.36021611     -0.00527679      0.01930816      0.01257432
    2
 MD step:         550 time   1.3303863795777500     
 H      0.00426313     -0.04744684     -0.37960502      0.00152657     -0.03654543     -0.02609901
 H     -0.00920493      0.02452241      0.36174518     -0.00524113      0.01931402      0.01267446
    2
 MD step:         600 time   1.4513305959030001     
 H      0.00443540     -0.05186900     -0.38279620      0.00138166     -0.03659441     -0.02673155
 H     -0.00982646      0.02686053      0.36331273     -0.00509622      0.01936300      0.01330699
    2
 MD step:         650 time   1.5722748122282502     
 H      0.00458706     -0.05630484     -0.38613813      0.00107867     -0.03677640     -0.02872080
 H     -0.01042737      0.02921233      0.36503104     -0.00479323      0.01954499      0.01529625
    2
 MD step:         700 time   1.6932190285535000     
 H      0.00470596     -0.06077531     -0.38982057      0.00066495     -0.03716853     -0.03252235
 H     -0.01099553      0.03159876      0.36708986     -0.00437952      0.01993712      0.01909780
    2
 MD step:         750 time   1.8141632448787501     
 H      0.00477834     -0.06530891     -0.39407472      0.00023487     -0.03783285     -0.03832617
 H     -0.01151717      0.03404832      0.36972038     -0.00394944      0.02060145      0.02490162
    2
 MD step:         800 time   1.9351074612040000     
 H      0.00479113     -0.06993833     -0.39913848     -0.00015897     -0.03879629     -0.04604845
 H     -0.01197922      0.03659370      0.37316053     -0.00355560      0.02156488      0.03262390
    2
 MD step:         850 time   2.0560516775292501     
 H      0.00473501     -0.07469907     -0.40524218     -0.00056346     -0.04006544     -0.05557569
 H     -0.01237234      0.03927041      0.37764060     -0.00315110      0.02283403      0.04215114
    2
 MD step:         900 time   2.1769958938545000     
 H      0.00460836     -0.07963044     -0.41261318     -0.00109406     -0.04161809     -0.06671303
 H     -0.01269495      0.04211774      0.38338798     -0.00262050      0.02438668      0.05328847
    2
 MD step:         950 time   2.2979401101797499     
 H      0.00442141     -0.08477778     -0.42148585     -0.00175419     -0.04350757     -0.07970747
 H     -0.01295725      0.04518104      0.39063703     -0.00196038      0.02627616      0.06628292
    2
 MD step:        1000 time   2.4188843265050002     
 H      0.00419822     -0.09019437     -0.43211023     -0.00220619     -0.04596640     -0.09553841
 H     -0.01318333      0.04851359      0.39963779     -0.00150838      0.02873499      0.08211386
    2
 MD step:        1050 time   2.5398285428302501     
 H      0.00397485     -0.09593351     -0.44470651     -0.00187119     -0.04911882     -0.11411165
 H     -0.01340921      0.05216868      0.41061044     -0.00184337      0.03188741      0.10068710
    2
 MD step:        1100 time   2.6607727591554999     
 H      0.00380459     -0.10205702     -0.45951575     -0.00066571     -0.05242569     -0.13202457
 H     -0.01368820      0.05620815      0.42379607     -0.00304886      0.03519428      0.11860001
    2
 MD step:        1150 time   2.7817169754807503     
 H      0.00377179     -0.10863396     -0.47676783      0.00069381     -0.05601336     -0.15079113
 H     -0.01410466      0.06070105      0.43942452     -0.00440838      0.03878195      0.13736657
    2
 MD step:        1200 time   2.9026611918060001     
 H      0.00394344     -0.11561906     -0.49606737      0.00182533     -0.05959971     -0.16915291
 H     -0.01472557      0.06560212      0.45710044     -0.00553989      0.04236830      0.15572836
    2
 MD step:        1250 time   3.0236054081312500     
 H      0.00425370     -0.12296614     -0.51717517      0.00272580     -0.06161592     -0.17894562
 H     -0.01548508      0.07086516      0.47658461     -0.00644035      0.04438451      0.16552108
    2
 MD step:        1300 time   3.1445496244565003     
 H      0.00454058     -0.13053384     -0.53946016      0.00233852     -0.06347107     -0.18892505
 H     -0.01622121      0.07634881      0.49724599     -0.00605308      0.04623966      0.17550051
    2
 MD step:        1350 time   3.2654938407817502     
 H      0.00473995     -0.13826346     -0.56266323      0.00093995     -0.06424875     -0.19426303
 H     -0.01686984      0.08199440      0.51882544     -0.00465450      0.04701734      0.18083849
    2
 MD step:        1400 time   3.3864380571070001     
 H      0.00488706     -0.14612236     -0.58656415      0.00138970     -0.06595309     -0.20225850
 H     -0.01746620      0.08776926      0.54110274     -0.00510424      0.04872168      0.18883397
    2
 MD step:        1450 time   3.5073822734322500     
 H      0.00509491     -0.15419401     -0.61145137      0.00257370     -0.06722406     -0.20728332
 H     -0.01812330      0.09375687      0.56436634     -0.00628824      0.04999265      0.19385880
    2
 MD step:        1500 time   3.6283264897575003     
 H      0.00544366     -0.16237212     -0.63671308      0.00266012     -0.06816833     -0.21172279
 H     -0.01892130      0.09985094      0.58800442     -0.00637466      0.05093692      0.19829826
    2
 MD step:        1550 time   3.7492707060827501     
 H      0.00575783     -0.17068502     -0.66265149      0.00242230     -0.06914116     -0.21656764
 H     -0.01968473      0.10607981      0.61231922     -0.00613684      0.05190975      0.20314311
    2
 MD step:        1600 time   3.8702149224080000     
 H      0.00597110     -0.17905343     -0.68895288      0.00158866     -0.06915207     -0.21745491
 H     -0.02034724      0.11236417      0.63699699     -0.00530319      0.05192066      0.20403038
    2
 MD step:        1650 time   3.9911591387332503     
 H      0.00624939     -0.18744654     -0.71530298      0.00272077     -0.06990825     -0.21980438
 H     -0.02107478      0.11867324      0.66172347     -0.00643529      0.05267684      0.20637986
    2
 MD step:        1700 time   4.1121033550585002     
 H      0.00658668     -0.19597935     -0.74223465      0.00299454     -0.07102543     -0.22463267
 H     -0.02186133      0.12512201      0.68703153     -0.00670905      0.05379402      0.21120816
    2
 MD step:        1750 time   4.2330475713837501     
 H      0.00690434     -0.20457172     -0.76945758      0.00187143     -0.07089530     -0.22517152
 H     -0.02262823      0.13163035      0.71263084     -0.00558595      0.05366389      0.21174701
    2
 MD step:        1800 time   4.3539917877090000     
 H      0.00713438     -0.21312052     -0.79657230      0.00248776     -0.07063313     -0.22337854
 H     -0.02330753      0.13809510      0.73812194     -0.00620229      0.05340172      0.20995402
    2
 MD step:        1850 time   4.4749360040342498     
 H      0.00746793     -0.22171130     -0.82376966      0.00271088     -0.07153509     -0.22715619
 H     -0.02409033      0.14460184      0.76369569     -0.00642541      0.05430368      0.21373167
    2
 MD step:        1900 time   4.5958802203594997     
 H      0.00779479     -0.23041534     -0.85147448      0.00263768     -0.07230569     -0.23062373
 H     -0.02486643      0.15122185      0.78977688     -0.00635221      0.05507428      0.21719921
    2
 MD step:        1950 time   4.7168244366847505     
 H      0.00806195     -0.23917908     -0.87950119      0.00203451     -0.07247979     -0.23198991
 H     -0.02558285      0.15790155      0.81617998     -0.00574904      0.05524838      0.21856539
    2
 MD step:        2000 time   4.8377686530100004     
 H      0.00839586     -0.24791049     -0.90732087      0.00331530     -0.07189334     -0.22816378
 H     -0.02636601      0.16454892      0.84237604     -0.00702984      0.05466193      0.21473926
    2
 MD step:        2050 time   4.9587128693352502     
 H      0.00873929     -0.25659511     -0.93492826      0.00232380     -0.07182304     -0.22885075
 H     -0.02715869      0.17114950      0.86835980     -0.00603833      0.05459163      0.21542622
    2
 MD step:        2100 time   5.0796570856605001     
 H      0.00903308     -0.26530957     -0.96271328      0.00264952     -0.07240729     -0.23102825
 H     -0.02790173      0.17777992      0.89452121     -0.00636406      0.05517588      0.21760373
    2
 MD step:        2150 time   5.2006013019857500     
 H      0.00936179     -0.27412342     -0.99088810      0.00276297     -0.07331950     -0.23480401
 H     -0.02867970      0.18450973      0.92107241     -0.00647750      0.05608809      0.22137949
    2
 MD step:        2200 time   5.3215455183109999     
 H      0.00970214     -0.28302788     -1.01943672      0.00270936     -0.07386854     -0.23718670
 H     -0.02946930      0.19133015      0.94799742     -0.00642389      0.05663713      0.22376219
    2
 MD step:        2250 time   5.4424897346362506     
 H      0.00999692     -0.29198204     -1.04824126      0.00245575     -0.07411990     -0.23850186
 H     -0.03021333      0.19820027      0.97517834     -0.00617028      0.05688849      0.22507734
    2
 MD step:        2300 time   5.5634339509615005     
 H      0.01036025     -0.30092038     -1.07691095      0.00327251     -0.07358636     -0.23544505
 H     -0.03102591      0.20505457      1.00222441     -0.00698704      0.05635496      0.22202053
    2
 MD step:        2350 time   5.6843781672867504     
 H      0.01068626     -0.30978306     -1.10530091      0.00220267     -0.07302142     -0.23415188
 H     -0.03180117      0.21183321      1.02899075     -0.00591720      0.05579001      0.22072737
    2
 MD step:        2400 time   5.8053223836120003     
 H      0.01098742     -0.31860755     -1.13355614      0.00289284     -0.07304533     -0.23356010
 H     -0.03255158      0.21857366      1.05562236     -0.00660737      0.05581392      0.22013558
    2
 MD step:        2450 time   5.9262665999372501     
 H      0.01133011     -0.32746944     -1.16192511      0.00257215     -0.07350645     -0.23579362
 H     -0.03334352      0.22535151      1.08236772     -0.00628668      0.05627504      0.22236911
    2
 MD step:        2500 time   6.0472108162625000     
 H      0.01163627     -0.33638790     -1.19056486      0.00271776     -0.07397844     -0.23759873
 H     -0.03409893      0.23218593      1.10938385     -0.00643228      0.05674703      0.22417421
    2
 MD step:        2550 time   6.1681550325877499     
 H      0.01198574     -0.34535603     -1.21936627      0.00279935     -0.07427186     -0.23872592
 H     -0.03489765      0.23907002      1.13656164     -0.00651387      0.05704045      0.22530141
    2
 MD step:        2600 time   6.2890992489130007     
 H      0.01228463     -0.35434665     -1.24831080      0.00240881     -0.07436044     -0.23948031
 H     -0.03564579      0.24597661      1.16388256     -0.00612334      0.05712903      0.22605580
    2
 MD step:        2650 time   6.4100434652382505     
 H      0.01263194     -0.36332228     -1.27714560      0.00315569     -0.07400190     -0.23726684
 H     -0.03644235      0.25286820      1.19109374     -0.00687021      0.05677049      0.22384233
    2
 MD step:        2700 time   6.5309876815635004     
 H      0.01295975     -0.37224667     -1.30579054      0.00226059     -0.07359557     -0.23650435
 H     -0.03721942      0.25970854      1.21811506     -0.00597511      0.05636417      0.22307984
    2
 MD step:        2750 time   6.6519318978887503     
 H      0.01326111     -0.38113547     -1.33431695      0.00290276     -0.07347863     -0.23538604
 H     -0.03797002      0.26651331      1.24501785     -0.00661729      0.05624722      0.22196152
    2
 MD step:        2800 time   6.7728761142140002     
 H      0.01360760     -0.39003263     -1.36283206      0.00254567     -0.07365628     -0.23646369
 H     -0.03876576      0.27332642      1.27190934     -0.00626020      0.05642488      0.22303917
    2
 MD step:        2850 time   6.8938203305392500     
 H      0.01390143     -0.39895155     -1.39148803      0.00264458     -0.07382078     -0.23703032
 H     -0.03950884      0.28016131      1.29894170     -0.00635910      0.05658937      0.22360581
    2
 MD step:        2900 time   7.0147645468644999     
 H      0.01425463     -0.40787790     -1.42011468      0.00285383     -0.07374124     -0.23650033
 H     -0.04031129      0.28700362      1.32594473     -0.00656836      0.05650983      0.22307582
    2
 MD step:        2950 time   7.1357087631897507     
 H      0.01454838     -0.41678408     -1.44871952      0.00227493     -0.07352251     -0.23619878
 H     -0.04105429      0.29382576      1.35292595     -0.00598945      0.05629110      0.22277426
    2
 MD step:        3000 time   7.2566529795150005     
 H      0.01487699     -0.42566069     -1.47717058      0.00303888     -0.07329716     -0.23452962
 H     -0.04183215      0.30061833      1.37975340     -0.00675340      0.05606575      0.22110511
    2
 MD step:        3050 time   7.3775971958402504     
 H      0.01520297     -0.43452094     -1.50555861      0.00229160     -0.07323113     -0.23501227
 H     -0.04260739      0.30739454      1.40651781     -0.00600613      0.05599972      0.22158776
    2
 MD step:        3100 time   7.4985414121655003     
 H      0.01550103     -0.44337840     -1.53396340      0.00285442     -0.07325705     -0.23455303
 H     -0.04335469      0.31416796      1.43329898     -0.00656894      0.05602564      0.22112851
    2
 MD step:        3150 time   7.6194856284907502     
 H      0.01584667     -0.45223841     -1.56233079      0.00252805     -0.07324338     -0.23482490
 H     -0.04414959      0.32094393      1.46004275     -0.00624257      0.05601197      0.22140038
    2
 MD step:        3200 time   7.7404298448160000     
 H      0.01612862     -0.46109283     -1.59073961      0.00251981     -0.07315779     -0.23449231
 H     -0.04488079      0.32771432      1.48682795     -0.00623434      0.05592638      0.22106780
    2
 MD step:        3250 time   7.8613740611412499     
 H      0.01647581     -0.46993051     -1.61901657      0.00287123     -0.07299320     -0.23348662
 H     -0.04567723      0.33446795      1.51348130     -0.00658575      0.05576179      0.22006211
    2
 MD step:        3300 time   7.9823182774665007     
 H      0.01677113     -0.47875078     -1.64727628      0.00223917     -0.07287131     -0.23363501
 H     -0.04642180      0.34120419      1.54011739     -0.00595369      0.05563990      0.22021049
    2
 MD step:        3350 time   8.1032624937917497     
 H      0.01708932     -0.48756142     -1.67547489      0.00296650     -0.07284019     -0.23278435
 H     -0.04718924      0.34793078      1.56669238     -0.00668103      0.05560878      0.21935983
    2
 MD step:        3400 time   8.2242067101170004     
 H      0.01741283     -0.49636987     -1.70365955      0.00226278     -0.07281844     -0.23340209
 H     -0.04796200      0.35465520      1.59325343     -0.00597731      0.05558703      0.21997757
    2
 MD step:        3450 time   8.3451509264422494     
 H      0.01770185     -0.50517376     -1.73186067      0.00278912     -0.07275259     -0.23261584
 H     -0.04870026      0.36137504      1.61983093     -0.00650365      0.05552118      0.21919133
    2
 MD step:        3500 time   8.4660951427675002     
 H      0.01804690     -0.51396579     -1.75995900      0.00254867     -0.07263860     -0.23240702
 H     -0.04949457      0.36808304      1.64630564     -0.00626319      0.05540719      0.21898251
    2
 MD step:        3550 time   8.5870393590927510     
 H      0.01832437     -0.52274483     -1.78807372      0.00242013     -0.07254242     -0.23215701
 H     -0.05022129      0.37477803      1.67279674     -0.00613466      0.05531101      0.21873250
    2
 MD step:        3600 time   8.7079835754179999     
 H      0.01866211     -0.53151547     -1.81609516      0.00285667     -0.07249878     -0.23154900
 H     -0.05100828      0.38146464      1.69919457     -0.00657119      0.05526737      0.21812448
    2
 MD step:        3650 time   8.8289277917432507     
 H      0.01895677     -0.54028147     -1.84414145      0.00218916     -0.07245965     -0.23206298
 H     -0.05175219      0.38814660      1.72561724     -0.00590369      0.05522825      0.21863846
    2
 MD step:        3700 time   8.9498720080684997     
 H      0.01926673     -0.54904152     -1.87214912      0.00293524     -0.07239400     -0.23105968
 H     -0.05251140      0.39482261      1.75200129     -0.00664976      0.05516260      0.21763516
    2
 MD step:        3750 time   9.0708162243937505     
 H      0.01959106     -0.55779219     -1.90010570      0.00225573     -0.07231284     -0.23142159
 H     -0.05328498      0.40148925      1.77833426     -0.00597026      0.05508143      0.21799707
    2
 MD step:        3800 time   9.1917604407189994     
 H      0.01987188     -0.56653356     -1.92806940      0.00269654     -0.07224358     -0.23071007
 H     -0.05401505      0.40814657      1.80467434     -0.00641107      0.05501217      0.21728556
    2
 MD step:        3850 time   9.3127046570442502     
 H      0.02021308     -0.57526811     -1.95594608      0.00256906     -0.07219653     -0.23065393
 H     -0.05480550      0.41479708      1.83092740     -0.00628358      0.05496512      0.21722942
    2
 MD step:        3900 time   9.4336488733695010     
 H      0.02048802     -0.58399704     -1.98386712      0.00234204     -0.07214912     -0.23069612
 H     -0.05552969      0.42144198      1.85722482     -0.00605656      0.05491771      0.21727161
    2
 MD step:        3950 time   9.5545930896947500     
 H      0.02081927     -0.59271952     -2.01170669      0.00286145     -0.07208860     -0.22994107
 H     -0.05631019      0.42808041      1.88344077     -0.00657597      0.05485719      0.21651655
    2
 MD step:        4000 time   9.6755373060200007     
 H      0.02111454     -0.60143445     -2.03955287      0.00214530     -0.07202679     -0.23041683
 H     -0.05705472      0.43471130      1.90966333     -0.00585983      0.05479538      0.21699232
    2
 MD step:        4050 time   9.7964815223452497     
 H      0.02141549     -0.61014228     -2.06736579      0.00288483     -0.07197303     -0.22946848
 H     -0.05780491      0.44133509      1.93585263     -0.00659936      0.05474162      0.21604396
    2
 MD step:        4100 time   9.9174257386705005     
 H      0.02174023     -0.61884414     -2.09513175      0.00226618     -0.07192586     -0.22990407
 H     -0.05857890      0.44795292      1.96199498     -0.00598071      0.05469445      0.21647955
    2
 MD step:        4150 time   10.038369954995749     
 H      0.02201513     -0.62754029     -2.12292536      0.00261705     -0.07187762     -0.22936622
 H     -0.05930305      0.45456502      1.98816497     -0.00633158      0.05464621      0.21594170
    2
 MD step:        4200 time   10.159314171321000     
 H      0.02235354     -0.63623031     -2.15063174      0.00259635     -0.07182545     -0.22918490
 H     -0.06009072      0.46117101      2.01424774     -0.00631088      0.05459404      0.21576039
    2
 MD step:        4250 time   10.280258387646251     
 H      0.02262681     -0.64491411     -2.17837917      0.00226772     -0.07177497     -0.22931824
 H     -0.06081323      0.46777076      2.04037155     -0.00598225      0.05454356      0.21589373
    2
 MD step:        4300 time   10.401202603971500     
 H      0.02295097     -0.65359205     -2.20605307      0.00285998     -0.07172892     -0.22854801
 H     -0.06158664      0.47436467      2.06642184     -0.00657450      0.05449751      0.21512349
    2
 MD step:        4350 time   10.522146820296751     
 H      0.02324779     -0.66226455     -2.23373328      0.00211879     -0.07168438     -0.22911725
 H     -0.06233272      0.48095313      2.09247843     -0.00583331      0.05445297      0.21569273
    2
 MD step:        4400 time   10.643091036622000     
 H      0.02354094     -0.67093165     -2.26139637      0.00283624     -0.07163937     -0.22822617
 H     -0.06307511      0.48753619      2.11851789     -0.00655076      0.05440796      0.21480166
    2
 MD step:        4450 time   10.764035252947250     
 H      0.02386649     -0.67959329     -2.28900595      0.00228534     -0.07159447     -0.22860403
 H     -0.06384992      0.49411379      2.14450386     -0.00599986      0.05436306      0.21517952
    2
 MD step:        4500 time   10.884979469272501     
 H      0.02413639     -0.68824959     -2.31665061      0.00253774     -0.07155115     -0.22818485
 H     -0.06456907      0.50068605      2.17052490     -0.00625227      0.05431974      0.21476033
    2
 MD step:        4550 time   11.005923685597750     
 H      0.02447162     -0.69690077     -2.34421029      0.00262590     -0.07150978     -0.22793753
 H     -0.06535354      0.50725320      2.19646097     -0.00634042      0.05427837      0.21451302
    2
 MD step:        4600 time   11.126867901923001     
 H      0.02474450     -0.70554700     -2.37181325      0.00220438     -0.07146912     -0.22820274
 H     -0.06607568      0.51381539      2.22244031     -0.00591891      0.05423771      0.21477822
    2
 MD step:        4650 time   11.247812118248250     
 H      0.02506186     -0.71418832     -2.39935286      0.00285681     -0.07142859     -0.22739465
 H     -0.06684229      0.52037267      2.24835630     -0.00657134      0.05419718      0.21397014
    2
 MD step:        4700 time   11.368756334573501     
 H      0.02536088     -0.72282480     -2.42689220      0.00210354     -0.07138901     -0.22799603
 H     -0.06759056      0.52692510      2.27427203     -0.00581806      0.05415760      0.21457152
    2
 MD step:        4750 time   11.489700550898750     
 H      0.02564679     -0.73145655     -2.45442657      0.00278347     -0.07135074     -0.22716935
 H     -0.06832572      0.53347282      2.30018277     -0.00649800      0.05411933      0.21374483
    2
 MD step:        4800 time   11.610644767224001     
 H      0.02597307     -0.74008374     -2.48190306      0.00231281     -0.07131333     -0.22749667
 H     -0.06910125      0.54001597      2.32603565     -0.00602734      0.05408192      0.21407216
    2
 MD step:        4850 time   11.731588983549251     
 H      0.02623913     -0.74870645     -2.50942258      0.00246181     -0.07127647     -0.22720654
 H     -0.06981656      0.54655463      2.35193155     -0.00617633      0.05404506      0.21378203
    2
 MD step:        4900 time   11.852533199874500     
 H      0.02657099     -0.75732472     -2.53685935      0.00265660     -0.07124019     -0.22687297
 H     -0.07059767      0.55308887      2.37774470     -0.00637112      0.05400878      0.21344846
    2
 MD step:        4950 time   11.973477416199751     
 H      0.02684450     -0.76593866     -2.56433790      0.00215021     -0.07120487     -0.22724430
 H     -0.07132043      0.55961877      2.40359964     -0.00586473      0.05397346      0.21381978
    2
 MD step:        5000 time   12.094421632525000     
 H      0.02715508     -0.77454840     -2.59176331      0.00284867     -0.07117050     -0.22641455
 H     -0.07208025      0.56614447      2.42940143     -0.00656320      0.05393909      0.21299003
    2
 MD step:        5050 time   12.215365848850251     
 H      0.02745668     -0.78315400     -2.61918190      0.00209930     -0.07113655     -0.22703430
 H     -0.07283111      0.57266603      2.45519640     -0.00581382      0.05390514      0.21360978
    2
 MD step:        5100 time   12.336310065175500     
 H      0.02773605     -0.79175552     -2.64660718      0.00272795     -0.07110309     -0.22627796
 H     -0.07355973      0.57918351      2.48099806     -0.00644248      0.05387168      0.21285345
    2
 MD step:        5150 time   12.457254281500751     
 H      0.02806292     -0.80035306     -2.67396974      0.00234687     -0.07107067     -0.22653545
 H     -0.07433585      0.58569701      2.50673700     -0.00606139      0.05383926      0.21311093
    2
 MD step:        5200 time   12.578198497826001     
 H      0.02832620     -0.80894673     -2.70138113      0.00238896     -0.07103906     -0.22637292
 H     -0.07504838      0.59220664      2.53252477     -0.00610348      0.05380765      0.21294840
    2
 MD step:        5250 time   12.699142714151250     
 H      0.02865432     -0.81753659     -2.72871321      0.00268604     -0.07100768     -0.22595633
 H     -0.07582575      0.59871246      2.55823324     -0.00640057      0.05377627      0.21253182
    2
 MD step:        5300 time   12.820086930476501     
 H      0.02892930     -0.82612268     -2.75608404      0.00210523     -0.07097669     -0.22641920
 H     -0.07654998      0.60521451      2.58398046     -0.00581976      0.05374528      0.21299469
    2
 MD step:        5350 time   12.941031146801750     
 H      0.02923317     -0.83470506     -2.78341190      0.00283550     -0.07094653     -0.22557421
 H     -0.07730310      0.61171286      2.60968469     -0.00655002      0.05371512      0.21214969
    2
 MD step:        5400 time   13.061975363127001     
 H      0.02953762     -0.84328386     -2.81072551      0.00210535     -0.07091719     -0.22619285
 H     -0.07805681      0.61820761      2.63537469     -0.00581988      0.05368578      0.21276834
    2
 MD step:        5450 time   13.182919579452250     
 H      0.02981115     -0.85185913     -2.83805669      0.00266925     -0.07088829     -0.22551915
 H     -0.07877958      0.62469885      2.66108225     -0.00638378      0.05365688      0.21209463
    2
 MD step:        5500 time   13.303863795777501     
 H      0.03013827     -0.86043093     -2.86532106      0.00238553     -0.07085979     -0.22569467
 H     -0.07955596      0.63118660      2.68672300     -0.00610005      0.05362838      0.21227015
    2
 MD step:        5550 time   13.424808012102751     
 H      0.03039975     -0.86899932     -2.89263813      0.00231978     -0.07083185     -0.22565442
 H     -0.08026669      0.63767095      2.71241646     -0.00603431      0.05360044      0.21222990
    2
 MD step:        5600 time   13.545752228428000     
 H      0.03072377     -0.87756436     -2.91987996      0.00271300     -0.07080444     -0.22515722
 H     -0.08103996      0.64415195      2.73803467     -0.00642753      0.05357303      0.21173271
    2
 MD step:        5650 time   13.666696444753251     
 H      0.03100096     -0.88612611     -2.94715618      0.00206974     -0.07077752     -0.22569844
 H     -0.08176639      0.65062967      2.76368727     -0.00578427      0.05354611      0.21227393
    2
 MD step:        5700 time   13.787640661078500     
 H      0.03129823     -0.89468464     -2.97440007      0.00281642     -0.07075108     -0.22485161
 H     -0.08251291      0.65710416      2.78930755     -0.00653094      0.05351967      0.21142709
    2
 MD step:        5750 time   13.908584877403751     
 H      0.03160561     -0.90324000     -3.00162186      0.00212050     -0.07072511     -0.22544918
 H     -0.08326954      0.66357548      2.81490571     -0.00583503      0.05349370      0.21202467
    2
 MD step:        5800 time   14.029529093729000     
 H      0.03187399     -0.91179224     -3.02887086      0.00260792     -0.07069960     -0.22486521