    2
 MD step:           0 time   0.0000000000000000     
 H      0.00000000      0.00000000     -0.37000000      0.00573852      0.01525669     -0.00131319
 H      0.00000000      0.00000000      0.37000000      0.03137134     -0.00286678      0.01784775
    2
 MD step:          50 time  0.12094421632525000     
 H      0.00069218      0.00184338     -0.37017473      0.00567433      0.01519338     -0.00166605
 H      0.00379605     -0.00034489      0.37217449      0.03143553     -0.00280348      0.01820061
    2
 MD step:         100 time  0.24188843265050000     
 H      0.00137043      0.00367301     -0.37039734      0.00559180      0.01511206     -0.00189570
 H      0.00760601     -0.00067604      0.37439686      0.03151806     -0.00272215      0.01843025
    2
 MD step:         150 time  0.36283264897575002     
 H      0.00204508      0.00549904     -0.37062400      0.00549839      0.01501792     -0.00187203
 H      0.01141959     -0.00100358      0.37662328      0.03161147     -0.00262802      0.01840659
    2
 MD step:         200 time  0.48377686530100000     
 H      0.00270460      0.00730981     -0.37084795      0.00550781      0.01502550     -0.00181625
 H      0.01524829     -0.00131586      0.37884698      0.03160205     -0.00263559      0.01835080
    2
 MD step:         250 time  0.60472108162625005     
 H      0.00338056      0.00913648     -0.37105724      0.00560673      0.01511629     -0.00158678
 H      0.01906056     -0.00164404      0.38105603      0.03150313     -0.00272638      0.01812133
    2
 MD step:         300 time  0.72566529795150003     
 H      0.00406121      0.01096656     -0.37123309      0.00569212      0.01519083     -0.00140719
 H      0.02286812     -0.00197563      0.38323164      0.03141774     -0.00280092      0.01794174
    2
 MD step:         350 time  0.84660951427675002     
 H      0.00475528      0.01280855     -0.37139588      0.00575794      0.01523841     -0.00116711
 H      0.02666228     -0.00231913      0.38539419      0.03135191     -0.00284851      0.01770167
    2
 MD step:         400 time  0.96755373060200001     
 H      0.00545067      0.01464883     -0.37150785      0.00570456      0.01515798     -0.00076647
 H      0.03045512     -0.00266093      0.38750592      0.03140530     -0.00276807      0.01730103
    2
 MD step:         450 time   1.0884979469272500     
 H      0.00613123      0.01647097     -0.37158022      0.00560236      0.01502324     -0.00033167
 H      0.03426278     -0.00298458      0.38957806      0.03150750     -0.00263334      0.01686623
    2
 MD step:         500 time   1.2094421632525001     
 H      0.00681223      0.01828849     -0.37157498      0.00560275      0.01497538      0.00040382
 H      0.03807000     -0.00330362      0.39157257      0.03150711     -0.00258547      0.01613073
    2
 MD step:         550 time   1.3303863795777500     
 H      0.00748328      0.02008991     -0.37148169      0.00558008      0.01489923      0.00113036
 H      0.04188717     -0.00360655      0.39347904      0.03152978     -0.00250932      0.01540420
    2
 MD step:         600 time   1.4513305959030001     
 H      0.00817385      0.02190379     -0.37130137      0.00579404      0.01504730      0.00189145
 H      0.04568483     -0.00392194      0.39529848      0.03131582     -0.00265740      0.01464311
    2
 MD step:         650 time   1.5722748122282502     
 H      0.00887785      0.02372199     -0.37101536      0.00587160      0.01504502      0.00276693
 H      0.04946904     -0.00424166      0.39701223      0.03123826     -0.00265511      0.01376763
    2
 MD step:         700 time   1.6932190285535000     
 H      0.00959466      0.02554364     -0.37064594      0.00595827      0.01505146      0.00339786
 H      0.05324046     -0.00456482      0.39864257      0.03115159     -0.00266156      0.01313670
    2
 MD step:         750 time   1.8141632448787501     
 H      0.01031809      0.02736042     -0.37017172      0.00598703      0.01497360      0.00442204
 H      0.05700525     -0.00488310      0.40016811      0.03112282     -0.00258370      0.01211251
    2
 MD step:         800 time   1.9351074612040000     
 H      0.01103272      0.02915576     -0.36958793      0.00583986      0.01472324      0.00525674
 H      0.06077884     -0.00517996      0.40158408      0.03127000     -0.00233333      0.01127782
    2
 MD step:         850 time   2.0560516775292501     
 H      0.01174664      0.03093670     -0.36888536      0.00598262      0.01474078      0.00638263
 H      0.06455314     -0.00546242      0.40288127      0.03112724     -0.00235088      0.01015193
    2
 MD step:         900 time   2.1769958938545000     
 H      0.01246869      0.03270986     -0.36804376      0.00596047      0.01458377      0.00753004
 H      0.06831932     -0.00573709      0.40403943      0.03114939     -0.00219387      0.00900452
    2
 MD step:         950 time   2.2979401101797499     
 H      0.01320468      0.03448085     -0.36707423      0.00623736      0.01472719      0.00848162
 H      0.07207155     -0.00600959      0.40506966      0.03087250     -0.00233728      0.00805294
    2
 MD step:        1000 time   2.4188843265050002     
 H      0.01396869      0.03626232     -0.36598121      0.00637462      0.01470594      0.00963559
 H      0.07579577     -0.00629257      0.40597639      0.03073524     -0.00231603      0.00689896
    2
 MD step:        1050 time   2.5398285428302501     
 H      0.01474571      0.03803799     -0.36476158      0.00645236      0.01463769      0.01046590
 H      0.07950697     -0.00656975      0.40675652      0.03065750     -0.00224778      0.00606866
    2
 MD step:        1100 time   2.6607727591554999     
 H      0.01552812      0.03980075     -0.36343735      0.00651132      0.01453004      0.01152693
 H      0.08321279     -0.00683403      0.40743205      0.03059854     -0.00214014      0.00500763
    2
 MD step:        1150 time   2.7817169754807503     
 H      0.01631546      0.04154749     -0.36197746      0.00645048      0.01430005      0.01256679
 H      0.08691367     -0.00708228      0.40797192      0.03065938     -0.00191014      0.00396777
    2
 MD step:        1200 time   2.9026611918060001     
 H      0.01709442      0.04326587     -0.36039634      0.00652463      0.01420654      0.01360715
 H      0.09062293     -0.00730217      0.40839056      0.03058523     -0.00181664      0.00292740
    2
 MD step:        1250 time   3.0236054081312500     
 H      0.01789684      0.04498650     -0.35868468      0.00668349      0.01418402      0.01470966
 H      0.09430874     -0.00752431      0.40867866      0.03042637     -0.00179411      0.00182490
    2
 MD step:        1300 time   3.1445496244565003     
 H      0.01871175      0.04669786     -0.35684357      0.00685168      0.01418147      0.01564650
 H      0.09798204     -0.00773719      0.40883731      0.03025818     -0.00179157      0.00088806
    2
 MD step:        1350 time   3.2654938407817502     
 H      0.01955551      0.04841833     -0.35490778      0.00706254      0.01422455      0.01643031
 H      0.10162651     -0.00795916      0.40890128      0.03004732     -0.00183464      0.00010424
    2
 MD step:        1400 time   3.3864380571070001     
 H      0.02041585      0.05013373     -0.35286319      0.00714183      0.01412889      0.01727742
 H      0.10525439     -0.00817608      0.40885644      0.02996803     -0.00173898     -0.00074286
    2
 MD step:        1450 time   3.5073822734322500     
 H      0.02127608      0.05183022     -0.35074122      0.00710247      0.01394132      0.01787236
 H      0.10888238     -0.00837409      0.40873424      0.03000739     -0.00155142     -0.00133781
    2
 MD step:        1500 time   3.6283264897575003     
 H      0.02214178      0.05351266     -0.34852644      0.00717538      0.01384692      0.01871320
 H      0.11250491     -0.00855804      0.40851922      0.02993447     -0.00145702     -0.00217864
    2
 MD step:        1550 time   3.7492707060827501     
 H      0.02300204      0.05517114     -0.34622277      0.00710584      0.01363858      0.01936738
 H      0.11613287     -0.00871803      0.40821530      0.03000402     -0.00124868     -0.00283282
    2
 MD step:        1600 time   3.8702149224080000     
 H      0.02387796      0.05682915     -0.34384448      0.00735757      0.01375750      0.01995704
 H      0.11974517     -0.00887755      0.40783677      0.02975229     -0.00136759     -0.00342249
    2
 MD step:        1650 time   3.9911591387332503     
 H      0.02477144      0.05848847     -0.34139244      0.00743646      0.01370948      0.02052727
 H      0.12333991     -0.00903839      0.40738449      0.02967340     -0.00131957     -0.00399272
    2
 MD step:        1700 time   4.1121033550585002     
 H      0.02568175      0.06015255     -0.33890141      0.00759220      0.01378422      0.02066756
 H      0.12691783     -0.00920398      0.40689322      0.02951766     -0.00139432     -0.00413300
    2
 MD step:        1750 time   4.2330475713837501     
 H      0.02660360      0.06181701     -0.33637740      0.00763686      0.01373091      0.02103567
 H      0.13048420     -0.00936995      0.40636898      0.02947300     -0.00134100     -0.00450112
    2
 MD step:        1800 time   4.3539917877090000     
 H      0.02751870      0.06346655     -0.33383466      0.00748728      0.01354214      0.02101372
 H      0.13405732     -0.00952100      0.40582599      0.02962258     -0.00115223     -0.00447916
    2
 MD step:        1850 time   4.4749360040342498     
 H      0.02842687      0.06510393     -0.33128046      0.00753386      0.01353957      0.02121921
 H      0.13763737     -0.00965989      0.40527155      0.02957600     -0.00114966     -0.00468466
    2
 MD step:        1900 time   4.5958802203594997     
 H      0.02932783      0.06673020     -0.32871095      0.00738068      0.01337661      0.02124841
 H      0.14122464     -0.00978768      0.40470180      0.02972918     -0.00098670     -0.00471385
    2
 MD step:        1950 time   4.7168244366847505     
 H      0.03023062      0.06835934     -0.32614848      0.00755237      0.01356962      0.02110928
 H      0.14481007     -0.00991833      0.40413908      0.02955749     -0.00117971     -0.00457473
    2
 MD step:        2000 time   4.8377686530100004     
 H      0.03114327      0.07000097     -0.32359992      0.00754135      0.01358729      0.02099341
 H      0.14838565     -0.01006147      0.40359029      0.02956851     -0.00119738     -0.00445886
    2
 MD step:        2050 time   4.9587128693352502     
 H      0.03205809      0.07165278     -0.32109539      0.00756383      0.01370867      0.02041077
 H      0.15195905     -0.01021480      0.40308551      0.02954603     -0.00131876     -0.00387621
    2
 MD step:        2100 time   5.0796570856605001     
 H      0.03296984      0.07331231     -0.31864575      0.00749745      0.01372485      0.02006963
 H      0.15553552     -0.01037583      0.40263564      0.02961241     -0.00133494     -0.00353507
    2
 MD step:        2150 time   5.2006013019857500     
 H      0.03386015      0.07496498     -0.31626180      0.00722518      0.01360959      0.01936062
 H      0.15913343     -0.01053002      0.40225144      0.02988467     -0.00121968     -0.00282606
    2
 MD step:        2200 time   5.3215455183109999     
 H      0.03473091      0.07661651     -0.31394869      0.00715947      0.01369048      0.01887664
 H      0.16275089     -0.01068307      0.40193809      0.02995039     -0.00130058     -0.00234208
    2
 MD step:        2250 time   5.4424897346362506     
 H      0.03557908      0.07826580     -0.31170330      0.00690942      0.01363592      0.01822869
 H      0.16639095     -0.01083387      0.40169246      0.03020044     -0.00124601     -0.00169414
    2
 MD step:        2300 time   5.5634339509615005     
 H      0.03641902      0.07993268     -0.30954546      0.00695078      0.01389852      0.01746151
 H      0.17003923     -0.01100226      0.40153438      0.03015908     -0.00150861     -0.00092695
    2
 MD step:        2350 time   5.6843781672867504     
 H      0.03725089      0.08161804     -0.30747462      0.00682590      0.01400843      0.01669623
 H      0.17369558     -0.01118913      0.40146330      0.03028396     -0.00161853     -0.00016167
    2
 MD step:        2400 time   5.8053223836120003     
 H      0.03807123      0.08332500     -0.30552453      0.00671609      0.01418815      0.01561341
 H      0.17736346     -0.01139760      0.40151297      0.03039377     -0.00179824      0.00092115
    2
 MD step:        2450 time   5.9262665999372501     
 H      0.03887326      0.08504622     -0.30368454      0.00650602      0.01425272      0.01471951
 H      0.18104966     -0.01162034      0.40167274      0.03060384     -0.00186281      0.00181505
    2
 MD step:        2500 time   6.0472108162625000     
 H      0.03963707      0.08676713     -0.30197408      0.00617654      0.01424894      0.01364340
 H      0.18477407     -0.01184276      0.40196204      0.03093332     -0.00185904      0.00289116
    2
 MD step:        2550 time   6.1681550325877499     
 H      0.04037482      0.08849896     -0.30037408      0.00595223      0.01432779      0.01277785
 H      0.18852454     -0.01207610      0.40236180      0.03115763     -0.00193788      0.00375671
    2
 MD step:        2600 time   6.2890992489130007     
 H      0.04107468      0.09023207     -0.29888606      0.00571962      0.01443332      0.01181825
 H      0.19231291     -0.01231072      0.40287354      0.03139024     -0.00204342      0.00471630
    2
 MD step:        2650 time   6.4100434652382505     
 H      0.04176405      0.09199523     -0.29751432      0.00561802      0.01465333      0.01091310
 H      0.19611176     -0.01257539      0.40350156      0.03149184     -0.00226343      0.00562146
    2
 MD step:        2700 time   6.5309876815635004     
 H      0.04243332      0.09377723     -0.29625086      0.00548094      0.01486193      0.00987941
 H      0.19993071     -0.01285891      0.40423786      0.03162892     -0.00247202      0.00665514
    2
 MD step:        2750 time   6.6519318978887503     
 H      0.04308718      0.09558658     -0.29512139      0.00532257      0.01502813      0.00891352
 H      0.20376508     -0.01316977      0.40510815      0.03178729     -0.00263823      0.00762103
    2
 MD step:        2800 time   6.7728761142140002     
 H      0.04371599      0.09740836     -0.29409914      0.00502395      0.01506147      0.00790669
 H      0.20762449     -0.01349306      0.40608566      0.03208590     -0.00267156      0.00862787
    2
 MD step:        2850 time   6.8938203305392500     
 H      0.04430553      0.09923149     -0.29319845      0.00479420      0.01513490      0.00708956
 H      0.21152318     -0.01381771      0.40718472      0.03231566     -0.00274499      0.00944499
    2
 MD step:        2900 time   7.0147645468644999     
 H      0.04486961      0.10106294     -0.29238355      0.00447516      0.01509579      0.00637408
 H      0.21544731     -0.01415066      0.40836958      0.03263470     -0.00270588      0.01016048
    2
 MD step:        2950 time   7.1357087631897507     
 H      0.04540181      0.10289663     -0.29165479      0.00440841      0.01530024      0.00569055
 H      0.21940334     -0.01448587      0.40964058      0.03270145     -0.00291033      0.01084401
    2
 MD step:        3000 time   7.2566529795150005     
 H      0.04592968      0.10475507     -0.29099892      0.00428862      0.01538988      0.00519716
 H      0.22336370     -0.01484582      0.41098447      0.03282124     -0.00299997      0.01133740
    2
 MD step:        3050 time   7.3775971958402504     
 H      0.04644600      0.10662806     -0.29041117      0.00426248      0.01559623      0.00447982
 H      0.22733560     -0.01522033      0.41239647      0.03284738     -0.00320632      0.01205474
    2
 MD step:        3100 time   7.4985414121655003     
 H      0.04695730      0.10851959     -0.28989679      0.00419250      0.01566404      0.00410177
 H      0.23131252     -0.01561337      0.41388186      0.03291736     -0.00327413      0.01243279
    2
 MD step:        3150 time   7.6194856284907502     
 H      0.04745249      0.11041164     -0.28943268      0.00396179      0.01559133      0.00355145
 H      0.23530555     -0.01600693      0.41541751      0.03314807     -0.00320142      0.01298311
    2
 MD step:        3200 time   7.7404298448160000     
 H      0.04792568      0.11229651     -0.28901727      0.00391018      0.01560458      0.00338909
 H      0.23932059     -0.01639331      0.41700185      0.03319968     -0.00321467      0.01314547
    2
 MD step:        3250 time   7.8613740611412499     
 H      0.04838738      0.11417520     -0.28861483      0.00370158      0.01543668      0.00327515
 H      0.24334710     -0.01677352      0.41859918      0.03340828     -0.00304677      0.01325941
    2
 MD step:        3300 time   7.9823182774665007     
 H      0.04883982      0.11604772     -0.28822158      0.00383753      0.01557233      0.00324291
 H      0.24738289     -0.01714755      0.42020569      0.03327233     -0.00318243      0.01329164
    2
 MD step:        3350 time   8.1032624937917497     
 H      0.04930752      0.11793049     -0.28782063      0.00388185      0.01553623      0.00342090
 H      0.25140341     -0.01753183      0.42180450      0.03322801     -0.00314632      0.01311365
    2
 MD step:        3400 time   8.2242067101170004     
 H      0.04978552      0.11981420     -0.28740825      0.00402665      0.01561518      0.00336641
 H      0.25541363     -0.01791705      0.42339187      0.03308321     -0.00322527      0.01316815
    2
 MD step:        3450 time   8.3451509264422494     
 H      0.05027898      0.12169982     -0.28698741      0.00413872      0.01554927      0.00366884
 H      0.25940840     -0.01830418      0.42497079      0.03297114     -0.00315937      0.01286572
    2
 MD step:        3500 time   8.4660951427675002     
 H      0.05077864      0.12356922     -0.28653254      0.00408401      0.01532755      0.00382552
 H      0.26339696     -0.01867509      0.42651568      0.03302585     -0.00293765      0.01270904
    2
 MD step:        3550 time   8.5870393590927510     
 H      0.05127658      0.12541313     -0.28604535      0.00421567      0.01520460      0.00430996
 H      0.26738725     -0.01902052      0.42802825      0.03289419     -0.00281470      0.01222460
    2
 MD step:        3600 time   8.7079835754179999     
 H      0.05179079      0.12723847     -0.28548933      0.00424343      0.01493408      0.00488859
 H      0.27136125     -0.01934737      0.42947199      0.03286642     -0.00254418      0.01164597
    2
 MD step:        3650 time   8.8289277917432507     
 H      0.05231689      0.12903907     -0.28486316      0.00453772      0.01491210      0.00546343
 H      0.27532338     -0.01964948      0.43084558      0.03257214     -0.00252219      0.01107113
    2
 MD step:        3700 time   8.9498720080684997     
 H      0.05288536      0.13083908     -0.28416079      0.00482772      0.01480089      0.00620961
 H      0.27924313     -0.01995101      0.43214297      0.03228214     -0.00241099      0.01032495
    2
 MD step:        3750 time   9.0708162243937505     
 H      0.05348641      0.13262234     -0.28337044      0.00511744      0.01470394      0.00678061
 H      0.28313031     -0.02023578      0.43335237      0.03199242     -0.00231404      0.00975394
    2
 MD step:        3800 time   9.1917604407189994     
 H      0.05412076      0.13439046     -0.28251358      0.00538575      0.01451823      0.00749811
 H      0.28698418     -0.02050541      0.43449528      0.03172411     -0.00212833      0.00903645
    2
 MD step:        3850 time   9.3127046570442502     
 H      0.05478613      0.13613017     -0.28155538      0.00555546      0.01420372      0.00828020
 H      0.29080703     -0.02074663      0.43553684      0.03155439     -0.00181381      0.00825436
    2
 MD step:        3900 time   9.4336488733695010     
 H      0.05546374      0.13782489     -0.28050791      0.00573446      0.01388726      0.00911228
 H      0.29461764     -0.02094287      0.43648912      0.03137540     -0.00149735      0.00742227
    2
 MD step:        3950 time   9.5545930896947500     
 H      0.05618124      0.13949424     -0.27934379      0.00606986      0.01365811      0.01013281
 H      0.29838837     -0.02111373      0.43732476      0.03104000     -0.00126820      0.00640175
    2
 MD step:        4000 time   9.6755373060200007     
 H      0.05692950      0.14112623     -0.27805705      0.00637741      0.01341055      0.01110701
 H      0.30212833     -0.02124723      0.43803778      0.03073245     -0.00102064      0.00542755
    2
 MD step:        4050 time   9.7964815223452497     
 H      0.05773318      0.14274655     -0.27666223      0.00687789      0.01333643      0.01199721
 H      0.30581287     -0.02136907      0.43864272      0.03023196     -0.00094652      0.00453735
    2
 MD step:        4100 time   9.9174257386705005     
 H      0.05858837      0.14434436     -0.27514576      0.00725905      0.01309798      0.01300901
 H      0.30944590     -0.02146839      0.43912601      0.02985081     -0.00070808      0.00352555
    2
 MD step:        4150 time   10.038369954995749     
 H      0.05948376      0.14591262     -0.27353114      0.00753825      0.01281820      0.01373120
 H      0.31303874     -0.02153816      0.43951115      0.02957161     -0.00042829      0.00280336
    2
 MD step:        4200 time   10.159314171321000     
 H      0.06041811      0.14744609     -0.27180520      0.00789727      0.01252696      0.01479969
 H      0.31659261     -0.02157314      0.43978497      0.02921259     -0.00013706      0.00173487
    2
 MD step:        4250 time   10.280258387646251     
 H      0.06138028      0.14893243     -0.26996157      0.00801946      0.01206313      0.01569216
 H      0.32011866     -0.02156099      0.43994110      0.02909040      0.00032678      0.00084240
    2
 MD step:        4300 time   10.401202603971500     
 H      0.06237702      0.15038135     -0.26800306      0.00849476      0.01192009      0.01670388
 H      0.32361014     -0.02151143      0.43998234      0.02861510      0.00046981     -0.00016932
    2
 MD step:        4350 time   10.522146820296751     
 H      0.06342412      0.15180468     -0.26591968      0.00880864      0.01160950      0.01774322
 H      0.32705127     -0.02143627      0.43989873      0.02830122      0.00078041     -0.00120866
    2
 MD step:        4400 time   10.643091036622000     
 H      0.06451742      0.15320324     -0.26372683      0.00928621      0.01153721      0.01847537
 H      0.33044620     -0.02133635      0.43970564      0.02782365      0.00085270     -0.00194082
    2
 MD step:        4450 time   10.764035252947250     
 H      0.06566475      0.15458714     -0.26144098      0.00967675      0.01132471      0.01937450
 H      0.33378708     -0.02122176      0.43941954      0.02743311      0.00106520     -0.00283994
    2
 MD step:        4500 time   10.884979469272501     
 H      0.06685096      0.15594071     -0.25905702      0.00989158      0.01103154      0.01997741
 H      0.33708910     -0.02107684      0.43903535      0.02721828      0.00135836     -0.00344286
    2
 MD step:        4550 time   11.005923685597750     
 H      0.06805965      0.15725677     -0.25659999      0.01015262      0.01076810      0.02072842
 H      0.34036863     -0.02089441      0.43857807      0.02695724      0.00162180     -0.00419386
    2
 MD step:        4600 time   11.126867901923001     
 H      0.06930061      0.15854143     -0.25404710      0.01029629      0.01042111      0.02144962
 H      0.34361589     -0.02068058      0.43802494      0.02681356      0.00196880     -0.00491506
    2
 MD step:        4650 time   11.247812118248250     
 H      0.07055643      0.15978635     -0.25141402      0.01056405      0.01025944      0.02208530
 H      0.34684830     -0.02042701      0.43739162      0.02654581      0.00213047     -0.00555074
    2
 MD step:        4700 time   11.368756334573501     
 H      0.07185649      0.16102389     -0.24870624      0.01087587      0.01014514      0.02271451
 H      0.35003646     -0.02016606      0.43668360      0.02623399      0.00224477     -0.00617995
    2
 MD step:        4750 time   11.489700550898750     
 H      0.07318640      0.16224319     -0.24592802      0.01113887      0.01007013      0.02312390
 H      0.35319477     -0.01988688      0.43590514      0.02597099      0.00231977     -0.00658934
    2
 MD step:        4800 time   11.610644767224001     
 H      0.07454763      0.16345830     -0.24311825      0.01135798      0.00999370      0.02341685
 H      0.35632176     -0.01960351      0.43509513      0.02575188      0.00239621     -0.00688229
    2
 MD step:        4850 time   11.731588983549251     
 H      0.07592986      0.16465793     -0.24026407      0.01143606      0.00981935      0.02367566
 H      0.35942776     -0.01930464      0.43424071      0.02567380      0.00257056     -0.00714110
    2
 MD step:        4900 time   11.852533199874500     
 H      0.07730744      0.16583112     -0.23739730      0.01140578      0.00963172      0.02379635
 H      0.36253840     -0.01897934      0.43337370      0.02570408      0.00275818     -0.00726179
    2
 MD step:        4950 time   11.973477416199751     
 H      0.07869386      0.16699228     -0.23450352      0.01144084      0.00951390      0.02401227
 H      0.36564021     -0.01864202      0.43247967      0.02566902      0.00287601     -0.00747771
    2
 MD step:        5000 time   12.094421632525000     
 H      0.08007043      0.16813264     -0.23159497      0.01140713      0.00944274      0.02405565
 H      0.36875186     -0.01828390      0.43157089      0.02570273      0.00294716     -0.00752109
    2
 MD step:        5050 time   12.215365848850251     
 H      0.08146031      0.16928445     -0.22868868      0.01151806      0.00954597      0.02402639
 H      0.37185020     -0.01793722      0.43066436      0.02559180      0.00284393     -0.00749184
    2
 MD step:        5100 time   12.336310065175500     
 H      0.08285140      0.17043973     -0.22578716      0.01149618      0.00960810      0.02384221
 H      0.37494733     -0.01759400      0.42976259      0.02561368      0.00278181     -0.00730765
    2
 MD step:        5150 time   12.457254281500751     
 H      0.08423787      0.17160869     -0.22293112      0.01142259      0.00969790      0.02346340
 H      0.37804908     -0.01726448      0.42890631      0.02568727      0.00269201     -0.00692885
    2
 MD step:        5200 time   12.578198497826001     
 H      0.08561127      0.17278341     -0.22010930      0.01121793      0.00970075      0.02309412
 H      0.38116391     -0.01694071      0.42808426      0.02589193      0.00268915     -0.00655956
    2
 MD step:        5250 time   12.699142714151250     
 H      0.08694497      0.17395309     -0.21735047      0.01090876      0.00970064      0.02259363
 H      0.38431843     -0.01661191      0.42732519      0.02620110      0.00268927     -0.00605907
    2
 MD step:        5300 time   12.820086930476501     
 H      0.08825352      0.17513370     -0.21464129      0.01064260      0.00975994      0.02216731
 H      0.38749811     -0.01629403      0.42661577      0.02646726      0.00262997     -0.00563275
    2
 MD step:        5350 time   12.941031146801750     
 H      0.08951863      0.17631746     -0.21199330      0.01036929      0.00991741      0.02159226
 H      0.39072122     -0.01597930      0.42596753      0.02674057      0.00247249     -0.00505770
    2
 MD step:        5400 time   13.061975363127001     
 H      0.09076368      0.17753528     -0.20942038      0.01016163      0.01015827      0.02099264
 H      0.39396439     -0.01569863      0.42539437      0.02694823      0.00223164     -0.00445808
    2
 MD step:        5450 time   13.182919579452250     
 H      0.09197487      0.17877729     -0.20692427      0.00987373      0.01042104      0.02017775
 H      0.39724142     -0.01544216      0.42489802      0.02723613      0.00196886     -0.00364319
    2
 MD step:        5500 time   13.303863795777501     
 H      0.09314857      0.18005285     -0.20453820      0.00954285      0.01065297      0.01937187
 H      0.40055594     -0.01521923      0.42451171      0.02756701      0.00173693     -0.00283731
    2
 MD step:        5550 time   13.424808012102751     
 H      0.09427565      0.18135085     -0.20224686      0.00902408      0.01077531      0.01843564
 H      0.40391708     -0.01501874      0.42422012      0.02808577      0.00161460     -0.00190108
    2
 MD step:        5600 time   13.545752228428000     
 H      0.09533604      0.18266355     -0.20007164      0.00858895      0.01098413      0.01760587
 H      0.40734492     -0.01483296      0.42404466      0.02852091      0.00140578     -0.00107131
    2
 MD step:        5650 time   13.666696444753251     
 H      0.09634395      0.18400083     -0.19799133      0.00801678      0.01108387      0.01677830
 H      0.41082523     -0.01467175      0.42396412      0.02909308      0.00130604     -0.00024374
    2
 MD step:        5700 time   13.787640661078500     
 H      0.09728930      0.18536046     -0.19601544      0.00768410      0.01145896      0.01589064
 H      0.41436811     -0.01453288      0.42398799      0.02942576      0.00093095      0.00064391
    2
 MD step:        5750 time   13.908584877403751     
 H      0.09819441      0.18676248     -0.19414161      0.00726141      0.01170118      0.01511433
 H      0.41795122     -0.01443642      0.42411391      0.02984845      0.00068873      0.00142022
    2
 MD step:        5800 time   14.029529093729000     
 H      0.09904980      0.18820039     -0.19237668      0.00688051      0.01207503      0.01404277