    2
 MD step:           0 time   0.0000000000000000     
 H      0.00000000      0.00000000     -0.37000000     -0.02068855      0.00266573     -0.00196650
 H      0.00000000      0.00000000      0.37000000     -0.00199339     -0.01945537     -0.03143997
    2
 MD step:          50 time  0.12094421632525000     
 H     -0.00250218      0.00032242     -0.37025268     -0.02068910      0.00266638     -0.00235124
 H     -0.00024107     -0.00235303      0.36621236     -0.00199284     -0.01945602     -0.03105523
    2
 MD step:         100 time  0.24188843265050000     
 H     -0.00500459      0.00064512     -0.37059730     -0.02069292      0.00267090     -0.00334456
 H     -0.00048191     -0.00470634      0.36251667     -0.00198902     -0.01946054     -0.03006191
    2
 MD step:         150 time  0.36283264897575002     
 H     -0.00750774      0.00096870     -0.37108454     -0.02070105      0.00268053     -0.00475360
 H     -0.00072201     -0.00706053      0.35896358     -0.00198088     -0.01947017     -0.02865287
    2
 MD step:         200 time  0.48377686530100000     
 H     -0.01001195      0.00129353     -0.37171452     -0.02070985      0.00269093     -0.00561522
 H     -0.00096105     -0.00941597      0.35555324     -0.00197209     -0.01948057     -0.02779125
    2
 MD step:         250 time  0.60472108162625005     
 H     -0.01251729      0.00161970     -0.37244691     -0.02072105      0.00270419     -0.00656734
 H     -0.00119896     -0.01177275      0.35224532     -0.00196088     -0.01949383     -0.02683913
    2
 MD step:         300 time  0.72566529795150003     
 H     -0.01502454      0.00194813     -0.37331481     -0.02074251      0.00272957     -0.00790350
 H     -0.00143495     -0.01413179      0.34907290     -0.00193943     -0.01951921     -0.02550297
    2
 MD step:         350 time  0.84660951427675002     
 H     -0.01753507      0.00228044     -0.37438947     -0.02077374      0.00276653     -0.00976315
 H     -0.00166767     -0.01649471      0.34610724     -0.00190820     -0.01955617     -0.02364332
    2
 MD step:         400 time  0.96755373060200001     
 H     -0.02004935      0.00261718     -0.37565413     -0.02080318      0.00280137     -0.01114160
 H     -0.00189664     -0.01886206      0.34333158     -0.00187875     -0.01959101     -0.02226487
    2
 MD step:         450 time   1.0884979469272500     
 H     -0.02256713      0.00295806     -0.37707454     -0.02083367      0.00283744     -0.01235868
 H     -0.00212212     -0.02123355      0.34071167     -0.00184827     -0.01962708     -0.02104779
    2
 MD step:         500 time   1.2094421632525001     
 H     -0.02508941      0.00330428     -0.37866222     -0.02087970      0.00289191     -0.01410073
 H     -0.00234308     -0.02361038      0.33825903     -0.00180224     -0.01968155     -0.01930574
    2
 MD step:         550 time   1.3303863795777500     
 H     -0.02761815      0.00365813     -0.38048778     -0.02093681      0.00295949     -0.01598164
 H     -0.00255759     -0.02599484      0.33604427     -0.00174512     -0.01974913     -0.01742482
    2
 MD step:         600 time   1.4513305959030001     
 H     -0.03015345      0.00401975     -0.38252248     -0.02098626      0.00301799     -0.01755148
 H     -0.00276554     -0.02838707      0.33403865     -0.00169568     -0.01980763     -0.01585499
    2
 MD step:         650 time   1.5722748122282502     
 H     -0.03269438      0.00438802     -0.38471642     -0.02103333      0.00307369     -0.01874123
 H     -0.00296786     -0.03078595      0.33219227     -0.00164861     -0.01986333     -0.01466523
    2
 MD step:         700 time   1.6932190285535000     
 H     -0.03524201      0.00476423     -0.38708863     -0.02109900      0.00315139     -0.02057285
 H     -0.00316348     -0.03319277      0.33052417     -0.00158294     -0.01994103     -0.01283361
    2
 MD step:         750 time   1.8141632448787501     
 H     -0.03779834      0.00515073     -0.38968159     -0.02117243      0.00323829     -0.02233318
 H     -0.00335040     -0.03560988      0.32907680     -0.00150951     -0.02002793     -0.01107329
    2
 MD step:         800 time   1.9351074612040000     
 H     -0.04036265      0.00554668     -0.39247096     -0.02122861      0.00330475     -0.02361614
 H     -0.00352934     -0.03803644      0.32782586     -0.00145333     -0.02009439     -0.00979033
    2
 MD step:         850 time   2.0560516775292501     
 H     -0.04293297      0.00594974     -0.39538337     -0.02127694      0.00336194     -0.02460169
 H     -0.00370226     -0.04047011      0.32669795     -0.00140500     -0.02015158     -0.00880478
    2
 MD step:         900 time   2.1769958938545000     
 H     -0.04551009      0.00636083     -0.39844368     -0.02134276      0.00343982     -0.02597520
 H     -0.00386839     -0.04291181      0.32571794     -0.00133918     -0.02022946     -0.00743126
    2
 MD step:         950 time   2.2979401101797499     
 H     -0.04809581      0.00678212     -0.40167748     -0.02141393      0.00352403     -0.02752133
 H     -0.00402592     -0.04536371      0.32491142     -0.00126801     -0.02031368     -0.00588513
    2
 MD step:        1000 time   2.4188843265050002     
 H     -0.05068870      0.00721187     -0.40505917     -0.02145805      0.00357625     -0.02829027
 H     -0.00417628     -0.04782407      0.32425280     -0.00122388     -0.02036589     -0.00511620
    2
 MD step:        1050 time   2.5398285428302501     
 H     -0.05328548      0.00764624     -0.40851320     -0.02148350      0.00360636     -0.02883798
 H     -0.00432275     -0.05028905      0.32366651     -0.00119844     -0.02039600     -0.00456849
    2
 MD step:        1100 time   2.6607727591554999     
 H     -0.05588581      0.00808480     -0.41203553     -0.02152088      0.00365058     -0.02946404
 H     -0.00446567     -0.05275822      0.32314852     -0.00116106     -0.02044023     -0.00394243
    2
 MD step:        1150 time   2.7817169754807503     
 H     -0.05849155      0.00852976     -0.41566679     -0.02156771      0.00370600     -0.03049567
 H     -0.00460318     -0.05523379      0.32273946     -0.00111423     -0.02049564     -0.00291080
    2
 MD step:        1200 time   2.9026611918060001     
 H     -0.06110162      0.00897986     -0.41938231     -0.02158756      0.00372948     -0.03093321
 H     -0.00473636     -0.05771450      0.32241466     -0.00109438     -0.02051912     -0.00247326
    2
 MD step:        1250 time   3.0236054081312500     
 H     -0.06371180      0.00943007     -0.42312373     -0.02157126      0.00371020     -0.03082885
 H     -0.00486943     -0.06019532      0.32211575     -0.00111068     -0.02049984     -0.00257762
    2
 MD step:        1300 time   3.1445496244565003     
 H     -0.06631925      0.00987706     -0.42683693     -0.02154979      0.00368480     -0.03068896
 H     -0.00500523     -0.06267291      0.32178864     -0.00113214     -0.02047444     -0.00271751
    2
 MD step:        1350 time   3.2654938407817502     
 H     -0.06892509      0.01032215     -0.43056033     -0.02154449      0.00367852     -0.03082309
 H     -0.00514263     -0.06514862      0.32147172     -0.00113745     -0.02046816     -0.00258338
    2
 MD step:        1400 time   3.3864380571070001     
 H     -0.07153042      0.01076662     -0.43430498     -0.02153460      0.00366682     -0.03110500
 H     -0.00528056     -0.06762370      0.32117605     -0.00114733     -0.02045646     -0.00230147
    2
 MD step:        1450 time   3.5073822734322500     
 H     -0.07413245      0.01120720     -0.43804400     -0.02148517      0.00360833     -0.03063126
 H     -0.00542177     -0.07009489      0.32087476     -0.00119677     -0.02039797     -0.00277521
    2
 MD step:        1500 time   3.6283264897575003     
 H     -0.07672586      0.01163757     -0.44170584     -0.02139672      0.00350367     -0.02986244
 H     -0.00557162     -0.07255587      0.32049627     -0.00128522     -0.02029332     -0.00354403
    2
 MD step:        1550 time   3.7492707060827501     
 H     -0.07930794      0.01205454     -0.44525896     -0.02130478      0.00339489     -0.02894523
 H     -0.00573279     -0.07500345      0.32000908     -0.00137715     -0.02018453     -0.00446124
    2
 MD step:        1600 time   3.8702149224080000     
 H     -0.08188011      0.01245979     -0.44873763     -0.02123275      0.00330965     -0.02856116
 H     -0.00590386     -0.07743931      0.31944742     -0.00144919     -0.02009929     -0.00484531
    2
 MD step:        1650 time   3.9911591387332503     
 H     -0.08444418      0.01285545     -0.45216127     -0.02116290      0.00322701     -0.02812897
 H     -0.00608304     -0.07986558      0.31883075     -0.00151903     -0.02001665     -0.00527750
    2
 MD step:        1700 time   4.1121033550585002     
 H     -0.08699776      0.01323869     -0.45552369     -0.02105575      0.00310023     -0.02728234
 H     -0.00627271     -0.08227943      0.31815284     -0.00162618     -0.01988987     -0.00612413
    2
 MD step:        1750 time   4.2330475713837501     
 H     -0.08953534      0.01360301     -0.45874862     -0.02090121      0.00291736     -0.02602626
 H     -0.00647838     -0.08467436      0.31733746     -0.00178072     -0.01970700     -0.00738020
    2
 MD step:        1800 time   4.3539917877090000     
 H     -0.09205278      0.01394349     -0.46180626     -0.02072899      0.00271358     -0.02450634
 H     -0.00670419     -0.08704545      0.31635478     -0.00195295     -0.01950322     -0.00890012
    2
 MD step:        1850 time   4.4749360040342498     
 H     -0.09455036      0.01426048     -0.46469832     -0.02057607      0.00253264     -0.02344299
 H     -0.00694986     -0.08939305      0.31520653     -0.00210587     -0.01932228     -0.00996347
    2
 MD step:        1900 time   4.5958802203594997     
 H     -0.09703088      0.01455727     -0.46747187     -0.02044640      0.00237921     -0.02244920
 H     -0.00721259     -0.09172045      0.31393975     -0.00223554     -0.01916885     -0.01095726
    2
 MD step:        1950 time   4.7168244366847505     
 H     -0.09949543      0.01483518     -0.47014616     -0.02030657      0.00221375     -0.02167862
 H     -0.00749128     -0.09402897      0.31257372     -0.00237537     -0.01900339     -0.01172784
    2
 MD step:        2000 time   4.8377686530100004     
 H     -0.10194099      0.01509061     -0.47268510     -0.02012482      0.00199869     -0.02031240
 H     -0.00778898     -0.09631501      0.31107234     -0.00255712     -0.01878833     -0.01309407
    2
 MD step:        2050 time   4.9587128693352502     
 H     -0.10436168      0.01531662     -0.47504636     -0.01989981      0.00173245     -0.01862610
 H     -0.00811153     -0.09857163      0.30939328     -0.00278213     -0.01852209     -0.01478037
    2
 MD step:        2100 time   5.0796570856605001     
 H     -0.10675417      0.01550926     -0.47718732     -0.01966624      0.00145608     -0.01687240
 H     -0.00846229     -0.10079487      0.30749392     -0.00301570     -0.01824572     -0.01653407
    2
 MD step:        2150 time   5.2006013019857500     
 H     -0.10911982      0.01567014     -0.47914360     -0.01946055      0.00121270     -0.01545189
 H     -0.00883989     -0.10298636      0.30540989     -0.00322138     -0.01800234     -0.01795458
    2
 MD step:        2200 time   5.3215455183109999     
 H     -0.11146301      0.01580443     -0.48094798     -0.01928751      0.00100794     -0.01450773
 H     -0.00923996     -0.10515127      0.30317395     -0.00339443     -0.01779758     -0.01889874
    2
 MD step:        2250 time   5.4424897346362506     
 H     -0.11378553      0.01591428     -0.48263738     -0.01911492      0.00080373     -0.01335778
 H     -0.00966068     -0.10729173      0.30082303     -0.00356702     -0.01759337     -0.02004868
    2
 MD step:        2300 time   5.5634339509615005     
 H     -0.11608485      0.01599667     -0.48418446     -0.01890190      0.00055168     -0.01213309
 H     -0.01010462     -0.10940472      0.29832979     -0.00378003     -0.01734132     -0.02127337
    2
 MD step:        2350 time   5.6843781672867504     
 H     -0.11835582      0.01604552     -0.48554280     -0.01864706      0.00025013     -0.01033228
 H     -0.01057689     -0.11148418      0.29564781     -0.00403488     -0.01703977     -0.02307419
    2
 MD step:        2400 time   5.8053223836120003     
 H     -0.12059511      0.01605688     -0.48669193     -0.01838607     -0.00005868     -0.00867807
 H     -0.01108085     -0.11352616      0.29275663     -0.00429586     -0.01673096     -0.02472839
    2
 MD step:        2450 time   5.9262665999372501     
 H     -0.12280475      0.01603316     -0.48764526     -0.01816335     -0.00032222     -0.00723644
 H     -0.01161446     -0.11553305      0.28966963     -0.00451859     -0.01646742     -0.02617003
    2
 MD step:        2500 time   6.0472108162625000     
 H     -0.12499022      0.01598084     -0.48846867     -0.01798512     -0.00053311     -0.00632648
 H     -0.01217224     -0.11751134      0.28645273     -0.00469681     -0.01625653     -0.02707998
    2
 MD step:        2550 time   6.1681550325877499     
 H     -0.12715553      0.01590467     -0.48918121     -0.01781626     -0.00073292     -0.00553516
 H     -0.01275018     -0.11946577      0.28312494     -0.00486568     -0.01605672     -0.02787130
    2
 MD step:        2600 time   6.2890992489130007     
 H     -0.12929867      0.01580226     -0.48978375     -0.01761461     -0.00097152     -0.00430655
 H     -0.01335029     -0.12139397      0.27968716     -0.00506733     -0.01581812     -0.02909992
    2
 MD step:        2650 time   6.4100434652382505     
 H     -0.13141478      0.01566787     -0.49022412     -0.01737527     -0.00125472     -0.00295662
 H     -0.01397743     -0.12329019      0.27608722     -0.00530667     -0.01553492     -0.03044985
    2
 MD step:        2700 time   6.5309876815635004     
 H     -0.13350185      0.01549911     -0.49049233     -0.01714395     -0.00152843     -0.00150391
 H     -0.01463361     -0.12515205      0.27231511     -0.00553799     -0.01526121     -0.03190255
    2
 MD step:        2750 time   6.6519318978887503     
 H     -0.13556419      0.01530111     -0.49062188     -0.01696933     -0.00173505     -0.00073397
 H     -0.01531451     -0.12698465      0.26840434     -0.00571261     -0.01505459     -0.03267250
    2
 MD step:        2800 time   6.7728761142140002     
 H     -0.13760901      0.01508236     -0.49066960     -0.01684993     -0.00187633     -0.00015791
 H     -0.01601294     -0.12879652      0.26441174     -0.00583201     -0.01491331     -0.03324855
    2
 MD step:        2850 time   6.8938203305392500     
 H     -0.13964002      0.01484728     -0.49067294     -0.01673369     -0.00201387      0.00024248
 H     -0.01672518     -0.13059204      0.26037476     -0.00594825     -0.01477577     -0.03364894
    2
 MD step:        2900 time   7.0147645468644999     
 H     -0.14165475      0.01459292     -0.49059507     -0.01657751     -0.00219866      0.00102060
 H     -0.01745370     -0.13236830      0.25625657     -0.00610442     -0.01459098     -0.03442707
    2
 MD step:        2950 time   7.1357087631897507     
 H     -0.14364940      0.01431482     -0.49041787     -0.01641096     -0.00239573      0.00192409
 H     -0.01820230     -0.13412080      0.25203905     -0.00627097     -0.01439391     -0.03533055
    2
 MD step:        3000 time   7.2566529795150005     
 H     -0.14562669      0.01401617     -0.49014702     -0.01630121     -0.00252560      0.00236724
 H     -0.01896826     -0.13585276      0.24772788     -0.00638072     -0.01426404     -0.03577371
    2
 MD step:        3050 time   7.3775971958402504     
 H     -0.14759560      0.01370761     -0.48986029     -0.01627001     -0.00256252      0.00237759
 H     -0.01974259     -0.13757481      0.24340084     -0.00641193     -0.01422712     -0.03578405
    2
 MD step:        3100 time   7.4985414121655003     
 H     -0.14956276      0.01339697     -0.48959340     -0.01625815     -0.00257655      0.00206251
 H     -0.02051868     -0.13929478      0.23909362     -0.00642379     -0.01421309     -0.03546897
    2
 MD step:        3150 time   7.6194856284907502     
 H     -0.15152657      0.01308236     -0.48933154     -0.01621114     -0.00263218      0.00226864
 H     -0.02129813     -0.14101079      0.23479145     -0.00647080     -0.01415746     -0.03567510
    2
 MD step:        3200 time   7.7404298448160000     
 H     -0.15348395      0.01276016     -0.48904905     -0.01616441     -0.00268747      0.00236916
 H     -0.02208399     -0.14271920      0.23046864     -0.00651753     -0.01410217     -0.03577563
    2
 MD step:        3250 time   7.8613740611412499     
 H     -0.15543968      0.01243600     -0.48876902     -0.01619519     -0.00265105      0.00210508
 H     -0.02287151     -0.14442564      0.22614829     -0.00648675     -0.01413859     -0.03551154
    2
 MD step:        3300 time   7.9823182774665007     
 H     -0.15740450      0.01212259     -0.48857199     -0.01630348     -0.00252291      0.00122130
 H     -0.02364995     -0.14614284      0.22191095     -0.00637845     -0.01426673     -0.03462776
    2
 MD step:        3350 time   8.1032624937917497     
 H     -0.15938292      0.01182528     -0.48846990     -0.01640800     -0.00239924      0.00043467
 H     -0.02441477     -0.14787615      0.21776853     -0.00627394     -0.01439040     -0.03384114
    2
 MD step:        3400 time   8.2242067101170004     
 H     -0.16137176      0.01154030     -0.48844465     -0.01647996     -0.00231409      0.00001837
 H     -0.02516918     -0.14962177      0.21370297     -0.00620197     -0.01447555     -0.03342484
    2
 MD step:        3450 time   8.3451509264422494     
 H     -0.16337123      0.01126789     -0.48848012     -0.01660206     -0.00216963     -0.00077423
 H     -0.02591296     -0.15137997      0.20969811     -0.00607988     -0.01462002     -0.03263223
    2
 MD step:        3500 time   8.4660951427675002     
 H     -0.16539140      0.01101998     -0.48864677     -0.01681772     -0.00191444     -0.00200187
 H     -0.02663604     -0.15316267      0.20582445     -0.00586422     -0.01487520     -0.03140460
    2
 MD step:        3550 time   8.5870393590927510     
 H     -0.16744002      0.01080573     -0.48898483     -0.01705447     -0.00163431     -0.00350261
 H     -0.02733067     -0.15497903      0.20212219     -0.00562747     -0.01515533     -0.02990386
    2
 MD step:        3600 time   8.7079835754179999     
 H     -0.16951426      0.01062180     -0.48946580     -0.01724260     -0.00141170     -0.00445391
 H     -0.02799968     -0.15682571      0.19856284     -0.00543934     -0.01537794     -0.02895255
    2
 MD step:        3650 time   8.8289277917432507     
 H     -0.17161204      0.01046572     -0.49007368     -0.01746223     -0.00115182     -0.00567929
 H     -0.02864515     -0.15870024      0.19513040     -0.00521971     -0.01563782     -0.02772718
    2
 MD step:        3700 time   8.9498720080684997     
 H     -0.17374200      0.01034771     -0.49085119     -0.01777379     -0.00078317     -0.00733972
 H     -0.02925844     -0.16061285      0.19186759     -0.00490815     -0.01600647     -0.02606674
    2
 MD step:        3750 time   9.0708162243937505     
 H     -0.17591188      0.01027695     -0.49185295     -0.01809827     -0.00039922     -0.00906052
 H     -0.02983181     -0.16257269      0.18882903     -0.00458366     -0.01639042     -0.02434594
    2
 MD step:        3800 time   9.1917604407189994     
 H     -0.17811704      0.01024793     -0.49303130     -0.01836015     -0.00008935     -0.01039366
 H     -0.03036989     -0.16457428      0.18596706     -0.00432179     -0.01670029     -0.02301281
    2
 MD step:        3850 time   9.3127046570442502     
 H     -0.18035401      0.01025654     -0.49436942     -0.01864312      0.00024547     -0.01175057
 H     -0.03087617     -0.16661351      0.18326487     -0.00403882     -0.01703511     -0.02165590
    2
 MD step:        3900 time   9.4336488733695010     
 H     -0.18263044      0.01031185     -0.49590331     -0.01901024      0.00067986     -0.01372914
 H     -0.03134299     -0.16869943      0.18075844     -0.00367170     -0.01746950     -0.01967733
    2
 MD step:        3950 time   9.5545930896947500     
 H     -0.18495162      0.01042010     -0.49766743     -0.01935927      0.00109285     -0.01538437
 H     -0.03176507     -0.17083829      0.17848223     -0.00332267     -0.01788249     -0.01802210
    2
 MD step:        4000 time   9.6755373060200007     
 H     -0.18730989      0.01057225     -0.49961293     -0.01962914      0.00141218     -0.01670351
 H     -0.03215004     -0.17302105      0.17638742     -0.00305280     -0.01820182     -0.01670296
    2
 MD step:        4050 time   9.7964815223452497     
 H     -0.18970037      0.01076251     -0.50170558     -0.01991310      0.00174818     -0.01797551
 H     -0.03250281     -0.17524192      0.17443975     -0.00276884     -0.01853782     -0.01543096
    2
 MD step:        4100 time   9.9174257386705005     
 H     -0.19212974      0.01099879     -0.50399209     -0.02026452      0.00216399     -0.01977737
 H     -0.03281669     -0.17750880      0.17268594     -0.00241742     -0.01895363     -0.01362910
    2
 MD step:        4150 time   10.038369954995749     
 H     -0.19460013      0.01128360     -0.50647525     -0.02057095      0.00252658     -0.02128034
 H     -0.03308955     -0.17982422      0.17112878     -0.00211099     -0.01931622     -0.01212612
    2
 MD step:        4200 time   10.159314171321000     
 H     -0.19710118      0.01160469     -0.50910871     -0.02077773      0.00277125     -0.02219019
 H     -0.03333175     -0.18217592      0.16972192     -0.00190421     -0.01956089     -0.01121628
    2
 MD step:        4250 time   10.280258387646251     
 H     -0.19962603      0.01195395     -0.51184557     -0.02098635      0.00301810     -0.02319798
 H     -0.03355015     -0.18455579      0.16841846     -0.00169559     -0.01980774     -0.01020849
    2
 MD step:        4300 time   10.401202603971500     
 H     -0.20217974      0.01233734     -0.51472742     -0.02124775      0.00332741     -0.02441502
 H     -0.03373969     -0.18696979      0.16725999     -0.00143419     -0.02011705     -0.00899144
    2
 MD step:        4350 time   10.522146820296751     
 H     -0.20476347      0.01275627     -0.51775849     -0.02146089      0.00357961     -0.02559775
 H     -0.03389921     -0.18941933      0.16625075     -0.00122105     -0.02036925     -0.00780872
    2
 MD step:        4400 time   10.643091036622000     
 H     -0.20736563      0.01319700     -0.52088111     -0.02155558      0.00369164     -0.02600216
 H     -0.03404029     -0.19189067      0.16533305     -0.00112636     -0.02048128     -0.00740430
    2
 MD step:        4450 time   10.764035252947250     
 H     -0.20997613      0.01364760     -0.52404886     -0.02161843      0.00376601     -0.02641902
 H     -0.03417304     -0.19437188      0.16446048     -0.00106351     -0.02055565     -0.00698745
    2
 MD step:        4500 time   10.884979469272501     
 H     -0.21259693      0.01411038     -0.52727203     -0.02172969      0.00389766     -0.02699459
 H     -0.03429549     -0.19686528      0.16364333     -0.00095225     -0.02068730     -0.00641187
    2
 MD step:        4550 time   11.005923685597750     
 H     -0.21523149      0.01458945     -0.53058561     -0.02182518      0.00401065     -0.02763423
 H     -0.03440418     -0.19937495      0.16291659     -0.00085676     -0.02080029     -0.00577224
    2
 MD step:        4600 time   11.126867901923001     
 H     -0.21787126      0.01507467     -0.53393813     -0.02180823      0.00399059     -0.02776849
 H     -0.03450767     -0.20189078      0.16222879     -0.00087371     -0.02078023     -0.00563798
    2
 MD step:        4650 time   11.247812118248250     
 H     -0.22050262      0.01554996     -0.53727747     -0.02169882      0.00386113     -0.02740057
 H     -0.03461955     -0.20439668      0.16152781     -0.00098312     -0.02065078     -0.00600589
    2
 MD step:        4700 time   11.368756334573501     
 H     -0.22312061      0.01600942     -0.54057475     -0.02160349      0.00374834     -0.02725313
 H     -0.03474481     -0.20688675      0.16078478     -0.00107845     -0.02053798     -0.00615333
    2
 MD step:        4750 time   11.489700550898750     
 H     -0.22572975      0.01645840     -0.54386817     -0.02154759      0.00368219     -0.02718765
 H     -0.03487892     -0.20936634      0.16003787     -0.00113435     -0.02047183     -0.00621881
    2
 MD step:        4800 time   11.610644767224001     
 H     -0.22833083      0.01689786     -0.54716406     -0.02145329      0.00357061     -0.02722021
 H     -0.03502109     -0.21183641      0.15929344     -0.00122865     -0.02036025     -0.00618626
    2
 MD step:        4850 time   11.731588983549251     
 H     -0.23091397      0.01731609     -0.55041666     -0.02124278      0.00332152     -0.02654260
 H     -0.03518120     -0.21428525      0.15850573     -0.00143916     -0.02011116     -0.00686386
    2
 MD step:        4900 time   11.852533199874500     
 H     -0.23346579      0.01769725     -0.55357468     -0.02094972      0.00297476     -0.02563025
 H     -0.03537263     -0.21669702      0.15762343     -0.00173222     -0.01976440     -0.00777622
    2
 MD step:        4950 time   11.973477416199751     
 H     -0.23598196      0.01803623     -0.55661351     -0.02066971      0.00264343     -0.02472796
 H     -0.03559971     -0.21906661      0.15662194     -0.00201223     -0.01943307     -0.00867851
    2
 MD step:        5000 time   12.094421632525000     
 H     -0.23846758      0.01833906     -0.55957578     -0.02044305      0.00237525     -0.02419256
 H     -0.03585734     -0.22140005      0.15554389     -0.00223888     -0.01916489     -0.00921391
    2
 MD step:        5050 time   12.215365848850251     
 H     -0.24092675      0.01861059     -0.56247024     -0.02021005      0.00209954     -0.02372685
 H     -0.03614142     -0.22370220      0.15439804     -0.00247189     -0.01888918     -0.00967962
    2
 MD step:        5100 time   12.336310065175500     
 H     -0.24335289      0.01884305     -0.56528571     -0.01988838      0.00171892     -0.02271091
 H     -0.03645852     -0.22596527      0.15317318     -0.00279356     -0.01850856     -0.01069555
    2
 MD step:        5150 time   12.457254281500751     
 H     -0.24573353      0.01902166     -0.56796036     -0.01946712      0.00122047     -0.02146522
 H     -0.03682113     -0.22817449      0.15180752     -0.00321482     -0.01801011     -0.01194124
    2
 MD step:        5200 time   12.578198497826001     
 H     -0.24806073      0.01913705     -0.57046564     -0.01902072      0.00069226     -0.01996830
 H     -0.03723718     -0.23032048      0.15027247     -0.00366122     -0.01748190     -0.01343816
    2
 MD step:        5250 time   12.699142714151250     
 H     -0.25033690      0.01919205     -0.57281599     -0.01862762      0.00022713     -0.01894965
 H     -0.03770426     -0.23240609      0.14858251     -0.00405432     -0.01701677     -0.01445682
    2
 MD step:        5300 time   12.820086930476501     
 H     -0.25256941      0.01919539     -0.57504445     -0.01829409     -0.00016752     -0.01799704
 H     -0.03821500     -0.23444004      0.14677065     -0.00438784     -0.01662212     -0.01540943
    2
 MD step:        5350 time   12.941031146801750     
 H     -0.25476106      0.01915038     -0.57717813     -0.01794454     -0.00058112     -0.01714576
 H     -0.03876660     -0.23642564      0.14486401     -0.00473740     -0.01620852     -0.01626070
    2
 MD step:        5400 time   13.061975363127001     
 H     -0.25690576      0.01904981     -0.57917627     -0.01750499     -0.00110123     -0.01591404
 H     -0.03936515     -0.23835569      0.14282183     -0.00517695     -0.01568841     -0.01749242
    2
 MD step:        5450 time   13.182919579452250     
 H     -0.25899210      0.01888020     -0.58100683     -0.01698744     -0.00171362     -0.01428280
 H     -0.04002206     -0.24021668      0.14061207     -0.00569450     -0.01507602     -0.01912367
    2
 MD step:        5500 time   13.303863795777501     
 H     -0.26101476      0.01863523     -0.58263635     -0.01646830     -0.00232789     -0.01275472
 H     -0.04074265     -0.24200233      0.13820127     -0.00621364     -0.01446175     -0.02065175
    2
 MD step:        5550 time   13.424808012102751     
 H     -0.26297845      0.01832049     -0.58409814     -0.01602291     -0.00285490     -0.01142093
 H     -0.04152221     -0.24371819      0.13562275     -0.00665903     -0.01393474     -0.02198554
    2
 MD step:        5600 time   13.545752228428000     
 H     -0.26489333      0.01794800     -0.58542869     -0.01564557     -0.00330138     -0.01062670
 H     -0.04235058     -0.24537631      0.13291297     -0.00703636     -0.01348826     -0.02277977
    2
 MD step:        5650 time   13.666696444753251     
 H     -0.26676377      0.01752292     -0.58664995     -0.01527266     -0.00374264     -0.00958105
 H     -0.04322339     -0.24698184      0.13009391     -0.00740928     -0.01304700     -0.02382542
    2
 MD step:        5700 time   13.787640661078500     
 H     -0.26858486      0.01703944     -0.58774764     -0.01482939     -0.00426714     -0.00842938
 H     -0.04414555     -0.24852897      0.12715129     -0.00785255     -0.01252250     -0.02497709
    2
 MD step:        5750 time   13.908584877403751     
 H     -0.27034772      0.01648708     -0.58867264     -0.01431718     -0.00487321     -0.00689678
 H     -0.04512593     -0.25000722      0.12403597     -0.00836476     -0.01191643     -0.02650969
    2
 MD step:        5800 time   14.029529093729000     
 H     -0.27204867      0.01586144     -0.58942158     -0.01382042     -0.00546101     -0.00548181