    2
 MD step:           0 time   0.0000000000000000     
 H      0.00000000      0.00000000     -0.37000000     -0.03358630      0.00549393      0.01694861
 H      0.00000000      0.00000000      0.37000000     -0.00138135     -0.00927463     -0.00971674
    2
 MD step:          50 time  0.12094421632525000     
 H     -0.00406209      0.00066447     -0.36796350     -0.03358712      0.00549431      0.01662360
 H     -0.00016704     -0.00112173      0.36883815     -0.00138053     -0.00927501     -0.00939173
    2
 MD step:         100 time  0.24188843265050000     
 H     -0.00812453      0.00132910     -0.36599870     -0.03359285      0.00549693      0.01582832
 H     -0.00033374     -0.00224361      0.36774801     -0.00137480     -0.00927763     -0.00859646
    2
 MD step:         150 time  0.36283264897575002     
 H     -0.01218814      0.00199426     -0.36416219     -0.03360633      0.00550311      0.01453982
 H     -0.00049927     -0.00336602      0.36678615     -0.00136132     -0.00928382     -0.00730795
    2
 MD step:         200 time  0.48377686530100000     
 H     -0.01625365      0.00266030     -0.36246546     -0.03362338      0.00551093      0.01350495
 H     -0.00066289     -0.00448932      0.36596407     -0.00134427     -0.00929164     -0.00627308
    2
 MD step:         250 time  0.60472108162625005     
 H     -0.02032124      0.00332729     -0.36088159     -0.03364092      0.00551898      0.01272995
 H     -0.00082443     -0.00561356      0.36525485     -0.00132673     -0.00929968     -0.00549809
    2
 MD step:         300 time  0.72566529795150003     
 H     -0.02439135      0.00399544     -0.35939500     -0.03366757      0.00553120      0.01173057
 H     -0.00098346     -0.00673897      0.36464291     -0.00130008     -0.00931190     -0.00449871
    2
 MD step:         350 time  0.84660951427675002     
 H     -0.02846581      0.00466558     -0.35805790     -0.03371355      0.00555228      0.01032399
 H     -0.00113813     -0.00786636      0.36418047     -0.00125410     -0.00933298     -0.00309212
    2
 MD step:         400 time  0.96755373060200001     
 H     -0.03254677      0.00533870     -0.35691640     -0.03377227      0.00557921      0.00863849
 H     -0.00128631     -0.00899674      0.36391362     -0.00119538     -0.00935992     -0.00140663
    2
 MD step:         450 time   1.0884979469272500     
 H     -0.03663470      0.00601502     -0.35595094     -0.03382689      0.00560426      0.00734352
 H     -0.00142752     -0.01013031      0.36382281     -0.00114076     -0.00938496     -0.00011165
    2
 MD step:         500 time   1.2094421632525001     
 H     -0.04072901      0.00669426     -0.35512700     -0.03388042      0.00562881      0.00628616
 H     -0.00156234     -0.01126680      0.36387352     -0.00108723     -0.00940951      0.00094571
    2
 MD step:         550 time   1.3303863795777500     
 H     -0.04483086      0.00737697     -0.35444794     -0.03395493      0.00566298      0.00481824
 H     -0.00168963     -0.01240676      0.36406912     -0.00101272     -0.00944368      0.00241363
    2
 MD step:         600 time   1.4513305959030001     
 H     -0.04894332      0.00806453     -0.35396434     -0.03405311      0.00570800      0.00312655
 H     -0.00180630     -0.01355158      0.36446017     -0.00091454     -0.00948870      0.00410532
    2
 MD step:         650 time   1.5722748122282502     
 H     -0.05306778      0.00875760     -0.35368913     -0.03414806      0.00575154      0.00157830
 H     -0.00191098     -0.01470191      0.36505961     -0.00081959     -0.00953224      0.00565356
    2
 MD step:         700 time   1.6932190285535000     
 H     -0.05720253      0.00945539     -0.35356806     -0.03422431      0.00578651      0.00046017
 H     -0.00200536     -0.01585695      0.36581320     -0.00074334     -0.00956721      0.00677169
    2
 MD step:         750 time   1.8141632448787501     
 H     -0.06134643      0.01015738     -0.35357483     -0.03430474      0.00582339     -0.00058037
 H     -0.00209060     -0.01701619      0.36669462     -0.00066291     -0.00960410      0.00781224
    2
 MD step:         800 time   1.9351074612040000     
 H     -0.06550173      0.01086459     -0.35373337     -0.03441318      0.00587312     -0.00208831
 H     -0.00216443     -0.01818066      0.36772781     -0.00055447     -0.00965382      0.00932017
    2
 MD step:         850 time   2.0560516775292501     
 H     -0.06967097      0.01157820     -0.35407143     -0.03452877      0.00592613     -0.00352863
 H     -0.00222432     -0.01935152      0.36894052     -0.00043888     -0.00970683      0.01076050
    2
 MD step:         900 time   2.1769958938545000     
 H     -0.07385265      0.01229751     -0.35456595     -0.03461429      0.00596535     -0.00450636
 H     -0.00227178     -0.02052808      0.37030969     -0.00035336     -0.00974605      0.01173823
    2
 MD step:         950 time   2.2979401101797499     
 H     -0.07804261      0.01302062     -0.35515125     -0.03467133      0.00599150     -0.00515752
 H     -0.00231095     -0.02170845      0.37176965     -0.00029632     -0.00977220      0.01238938
    2
 MD step:        1000 time   2.4188843265050002     
 H     -0.08223963      0.01374696     -0.35581343     -0.03473741      0.00602181     -0.00581941
 H     -0.00234307     -0.02289205      0.37330648     -0.00023024     -0.00980251      0.01305128
    2
 MD step:        1050 time   2.5398285428302501     
 H     -0.08644623      0.01447770     -0.35658217     -0.03482705      0.00606291     -0.00686427
 H     -0.00236561     -0.02408003      0.37494988     -0.00014060     -0.00984362      0.01409614
    2
 MD step:        1100 time   2.6607727591554999     
 H     -0.09066346      0.01521331     -0.35746402     -0.03490461      0.00609848     -0.00772823
 H     -0.00237751     -0.02527291      0.37670637     -0.00006304     -0.00987918      0.01496009
    2
 MD step:        1150 time   2.7817169754807503     
 H     -0.09488722      0.01595192     -0.35842242     -0.03493160      0.00611086     -0.00800788
 H     -0.00238288     -0.02646877      0.37853943     -0.00003605     -0.00989156      0.01523975
    2
 MD step:        1200 time   2.9026611918060001     
 H     -0.09911136      0.01669070     -0.35939241     -0.03491770      0.00610449     -0.00800667
 H     -0.00238788     -0.02766480      0.38038407     -0.00004995     -0.00988519      0.01523854
    2
 MD step:        1250 time   3.0236054081312500     
 H     -0.10333352      0.01742858     -0.36035556     -0.03490670      0.00609944     -0.00797191
 H     -0.00239485     -0.02885993      0.38222187     -0.00006095     -0.00988014      0.01520378
    2
 MD step:        1300 time   3.1445496244565003     
 H     -0.10755578      0.01816650     -0.36134032     -0.03491792      0.00610458     -0.00826888
 H     -0.00240173     -0.03005510      0.38408129     -0.00004973     -0.00988529      0.01550075
    2
 MD step:        1350 time   3.2654938407817502     
 H     -0.11177952      0.01890509     -0.36235638     -0.03492117      0.00610608     -0.00855445
 H     -0.00240712     -0.03125096      0.38597200     -0.00004648     -0.00988678      0.01578632
    2
 MD step:        1400 time   3.3864380571070001     
 H     -0.11600083      0.01964258     -0.36338109     -0.03487147      0.00608328     -0.00830256
 H     -0.00241495     -0.03244569      0.38787136     -0.00009618     -0.00986399      0.01553442
    2
 MD step:        1450 time   3.5073822734322500     
 H     -0.12021197      0.02037540     -0.36435400     -0.03475742      0.00603098     -0.00769115
 H     -0.00243295     -0.03363577      0.38971892     -0.00021023     -0.00981168      0.01492302
    2
 MD step:        1500 time   3.6283264897575003     
 H     -0.12440714      0.02110089     -0.36523130     -0.03461626      0.00596625     -0.00685372
 H     -0.00246691     -0.03481852      0.39147088     -0.00035139     -0.00974695      0.01408559
    2
 MD step:        1550 time   3.7492707060827501     
 H     -0.12858592      0.02181888     -0.36602370     -0.03449131      0.00590895     -0.00622715
 H     -0.00251726     -0.03599375      0.39313793     -0.00047634     -0.00968965      0.01345902
    2
 MD step:        1600 time   3.8702149224080000     
 H     -0.13275140      0.02253076     -0.36675385     -0.03438977      0.00586238     -0.00590982
 H     -0.00258092     -0.03716289      0.39474274     -0.00057788     -0.00964309      0.01314169
    2
 MD step:        1650 time   3.9911591387332503     
 H     -0.13690441      0.02323692     -0.36743881     -0.03427787      0.00581107     -0.00540037
 H     -0.00265705     -0.03832630      0.39630234     -0.00068978     -0.00959177      0.01263224
    2
 MD step:        1700 time   4.1121033550585002     
 H     -0.14104034      0.02393525     -0.36805457     -0.03410582      0.00573217     -0.00463654
 H     -0.00275025     -0.03948189      0.39779276     -0.00086183     -0.00951288      0.01186841
    2
 MD step:        1750 time   4.2330475713837501     
 H     -0.14515105      0.02462201     -0.36854348     -0.03386151      0.00562013     -0.00343612
 H     -0.00286868     -0.04062591      0.39915632     -0.00110614     -0.00940084      0.01066798
    2
 MD step:        1800 time   4.3539917877090000     
 H     -0.14922949      0.02529398     -0.36887285     -0.03357956      0.00549084     -0.00197953
 H     -0.00301937     -0.04175513      0.40036034     -0.00138809     -0.00927154      0.00921139
    2
 MD step:        1850 time   4.4749360040342498     
 H     -0.15327410      0.02595043     -0.36903498     -0.03330831      0.00536645     -0.00076423
 H     -0.00320390     -0.04286884      0.40139712     -0.00165934     -0.00914715      0.00799609
    2
 MD step:        1900 time   4.5958802203594997     
 H     -0.15728818      0.02659289     -0.36905835     -0.03307862      0.00526112      0.00028439
 H     -0.00341895     -0.04396855      0.40229515     -0.00188903     -0.00904182      0.00694747
    2
 MD step:        1950 time   4.7168244366847505     
 H     -0.16127567      0.02722315     -0.36897933     -0.03286651      0.00516385      0.00108900
 H     -0.00366059     -0.04505606      0.40309078     -0.00210114     -0.00894455      0.00614286
    2
 MD step:        2000 time   4.8377686530100004     
 H     -0.16523679      0.02784131     -0.36879468     -0.03262704      0.00505403      0.00195044
 H     -0.00392861     -0.04613148      0.40378078     -0.00234061     -0.00883473      0.00528143
    2
 MD step:        2050 time   4.9587128693352502     
 H     -0.16916577      0.02844474     -0.36848222     -0.03232902      0.00491737      0.00327464
 H     -0.00422877     -0.04719216      0.40434297     -0.00263863     -0.00869807      0.00395722
    2
 MD step:        2100 time   5.0796570856605001     
 H     -0.17305416      0.02902955     -0.36799834     -0.03196313      0.00474958      0.00481204
 H     -0.00456951     -0.04823422      0.40473375     -0.00300452     -0.00853028      0.00241983
    2
 MD step:        2150 time   5.2006013019857500     
 H     -0.17689613      0.02959308     -0.36731032     -0.03156986      0.00456923      0.00651855
 H     -0.00495668     -0.04925500      0.40492038     -0.00339779     -0.00834993      0.00071331
    2
 MD step:        2200 time   5.3215455183109999     
 H     -0.18069150      0.03013523     -0.36643037     -0.03120080      0.00439999      0.00804417
 H     -0.00539044     -0.05025442      0.40491508     -0.00376685     -0.00818069     -0.00081230
    2
 MD step:        2250 time   5.4424897346362506     
 H     -0.18444579      0.03065855     -0.36538557     -0.03088684      0.00425601      0.00914170
 H     -0.00586528     -0.05123499      0.40474493     -0.00408081     -0.00803671     -0.00190983
    2
 MD step:        2300 time   5.5634339509615005     
 H     -0.18816512      0.03116584     -0.36421677     -0.03062083      0.00413402      0.01013694
 H     -0.00637509     -0.05219953      0.40445078     -0.00434682     -0.00791473     -0.00290507
    2
 MD step:        2350 time   5.6843781672867504     
 H     -0.19185161      0.03165806     -0.36294172     -0.03034189      0.00400611      0.01104373
 H     -0.00691774     -0.05314901      0.40405039     -0.00462576     -0.00778681     -0.00381187
    2
 MD step:        2400 time   5.8053223836120003     
 H     -0.19550161      0.03213355     -0.36153521     -0.03000565      0.00385192      0.01220293
 H     -0.00749687     -0.05408175      0.40351853     -0.00496200     -0.00763262     -0.00497106
    2
 MD step:        2450 time   5.9262665999372501     
 H     -0.19910736      0.03258875     -0.35996911     -0.02961143      0.00367113      0.01374134
 H     -0.00812026     -0.05499421      0.40282708     -0.00535622     -0.00745183     -0.00650947
    2
 MD step:        2500 time   6.0472108162625000     
 H     -0.20266338      0.03302115     -0.35821581     -0.02919455      0.00347996      0.01524519
 H     -0.00879338     -0.05588386      0.40194844     -0.00577310     -0.00726066     -0.00801332
    2
 MD step:        2550 time   6.1681550325877499     
 H     -0.20617091      0.03343131     -0.35628284     -0.02882114      0.00330872      0.01662848
 H     -0.00951497     -0.05675127      0.40089012     -0.00614651     -0.00708942     -0.00939661
    2
 MD step:        2600 time   6.2890992489130007     
 H     -0.20963774      0.03382280     -0.35421555     -0.02852419      0.00317254      0.01756545
 H     -0.01027728     -0.05760002      0.39969749     -0.00644346     -0.00695325     -0.01033358
    2
 MD step:        2650 time   6.4100434652382505     
 H     -0.21307338      0.03419999     -0.35205103     -0.02828987      0.00306509      0.01814821
 H     -0.01107078     -0.05843446      0.39840761     -0.00667778     -0.00684579     -0.01091634
    2
 MD step:        2700 time   6.5309876815635004     
 H     -0.21648178      0.03456469     -0.34981432     -0.02806413      0.00296157      0.01885765
 H     -0.01189151     -0.05925642      0.39704555     -0.00690352     -0.00674227     -0.01162579
    2
 MD step:        2750 time   6.6519318978887503     
 H     -0.21985965      0.03491539     -0.34749042     -0.02778571      0.00283389      0.01967922
 H     -0.01274278     -0.06006437      0.39559631     -0.00718194     -0.00661459     -0.01244735
    2
 MD step:        2800 time   6.7728761142140002     
 H     -0.22320069      0.03524920     -0.34504439     -0.02746096      0.00268497      0.02074420
 H     -0.01363087     -0.06085543      0.39402493     -0.00750669     -0.00646567     -0.01351233
    2
 MD step:        2850 time   6.8938203305392500     
 H     -0.22650301      0.03556525     -0.34247454     -0.02715826      0.00254616      0.02174471
 H     -0.01455769     -0.06162874      0.39232974     -0.00780939     -0.00632686     -0.01451284
    2
 MD step:        2900 time   7.0147645468644999     
 H     -0.22977405      0.03586696     -0.33980681     -0.02695038      0.00245083      0.02225445
 H     -0.01551578     -0.06238770      0.39053665     -0.00801727     -0.00623153     -0.01502258
    2
 MD step:        2950 time   7.1357087631897507     
 H     -0.23302661      0.03616020     -0.33709712     -0.02684980      0.00240470      0.02246795
 H     -0.01649235     -0.06313819      0.38870162     -0.00811785     -0.00618540     -0.01523608
    2
 MD step:        3000 time   7.2566529795150005     
 H     -0.23626978      0.03644912     -0.33438503     -0.02678426      0.00237465      0.02246633
 H     -0.01747832     -0.06388437      0.38686418     -0.00818339     -0.00615535     -0.01523446
    2
 MD step:        3050 time   7.3775971958402504     
 H     -0.23950326      0.03673361     -0.33165782     -0.02667965      0.00232667      0.02262933
 H     -0.01847398     -0.06462611      0.38501163     -0.00828800     -0.00610738     -0.01539747
    2
 MD step:        3100 time   7.4985414121655003     
 H     -0.24272165      0.03701118     -0.32889538     -0.02654181      0.00226346      0.02305397
 H     -0.01948472     -0.06536093      0.38312384     -0.00842584     -0.00604417     -0.01582210
    2
 MD step:        3150 time   7.6194856284907502     
 H     -0.24592562      0.03728212     -0.32609430     -0.02645848      0.00222525      0.02319020
 H     -0.02050989     -0.06608913      0.38119741     -0.00850917     -0.00600595     -0.01595833
    2
 MD step:        3200 time   7.7404298448160000     
 H     -0.24912701      0.03755189     -0.32329687     -0.02650663      0.00224733      0.02293368
 H     -0.02153763     -0.06681616      0.37927464     -0.00846102     -0.00602804     -0.01570181
    2
 MD step:        3250 time   7.8613740611412499     
 H     -0.25234107      0.03782747     -0.32056475     -0.02665501      0.00231537      0.02229572
 H     -0.02255270     -0.06754899      0.37741716     -0.00831264     -0.00609608     -0.01506385
    2
 MD step:        3300 time   7.9823182774665007     
 H     -0.25557380      0.03811161     -0.31790855     -0.02679768      0.00238080      0.02164976
 H     -0.02354911     -0.06829039      0.37563562     -0.00816997     -0.00616150     -0.01441789
    2
 MD step:        3350 time   8.1032624937917497     
 H     -0.25882076      0.03840228     -0.31530817     -0.02689318      0.00242459      0.02134600
 H     -0.02453128     -0.06903831      0.37390989     -0.00807447     -0.00620530     -0.01411413
    2
 MD step:        3400 time   8.2242067101170004     
 H     -0.26208048      0.03869879     -0.31275296     -0.02702885      0.00248681      0.02085679
 H     -0.02550071     -0.06979208      0.37222933     -0.00793880     -0.00626751     -0.01362493
    2
 MD step:        3450 time   8.3451509264422494     
 H     -0.26536449      0.03900645     -0.31027674     -0.02730406      0.00261302      0.01993822
 H     -0.02644583     -0.07055699      0.37062777     -0.00766359     -0.00639372     -0.01270635
    2
 MD step:        3500 time   8.4660951427675002     
 H     -0.26868908      0.03933272     -0.30794077     -0.02768117      0.00278595      0.01873068
 H     -0.02735037     -0.07134051      0.36916645     -0.00728648     -0.00656665     -0.01149881
    2
 MD step:        3550 time   8.5870393590927510     
 H     -0.27205890      0.03967973     -0.30575084     -0.02803381      0.00294767      0.01756066
 H     -0.02820969     -0.07214477      0.36785117     -0.00693384     -0.00672837     -0.01032879
    2
 MD step:        3600 time   8.7079835754179999     
 H     -0.27546750      0.04004452     -0.30367673     -0.02833206      0.00308444      0.01672684
 H     -0.02903022     -0.07296682      0.36665172     -0.00663559     -0.00686514     -0.00949497
    2
 MD step:        3650 time   8.8289277917432507     
 H     -0.27891489      0.04042710     -0.30171623     -0.02869624      0.00325144      0.01565183
 H     -0.02981197     -0.07380665      0.36556587     -0.00627141     -0.00703215     -0.00841996
    2
 MD step:        3700 time   8.9498720080684997     
 H     -0.28241482      0.04083377     -0.29990775     -0.02919828      0.00348167      0.01412482
 H     -0.03054117     -0.07467058      0.36463204     -0.00576937     -0.00726237     -0.00689295
    2
 MD step:        3750 time   9.0708162243937505     
 H     -0.28597921      0.04127000     -0.29829329     -0.02973398      0.00372733      0.01261521
 H     -0.03120592     -0.07556406      0.36389223     -0.00523367     -0.00750803     -0.00538334
    2
 MD step:        3800 time   9.1917604407189994     
 H     -0.28960361      0.04173376     -0.29685096     -0.03018343      0.00393344      0.01134248
 H     -0.03181065     -0.07648507      0.36332456     -0.00478422     -0.00771414     -0.00411061
    2
 MD step:        3850 time   9.3127046570442502     
 H     -0.29327897      0.04222088     -0.29554264     -0.03060135      0.00412509      0.01025985
 H     -0.03236442     -0.07742945      0.36289089     -0.00436630     -0.00790579     -0.00302798
    2
 MD step:        3900 time   9.4336488733695010     
 H     -0.29701024      0.04273364     -0.29438722     -0.03112079      0.00436329      0.00884332
 H     -0.03286229     -0.07839946      0.36261012     -0.00384686     -0.00814400     -0.00161145
    2
 MD step:        3950 time   9.5545930896947500     
 H     -0.30081019      0.04327789     -0.29341956     -0.03171569      0.00463611      0.00712844
 H     -0.03329148     -0.07940097      0.36251712     -0.00325196     -0.00841681      0.00010343
    2
 MD step:        4000 time   9.6755373060200007     
 H     -0.30467847      0.04385349     -0.29263942     -0.03222865      0.00487134      0.00580560
 H     -0.03365233     -0.08043382      0.36261163     -0.00273900     -0.00865204      0.00142627
    2
 MD step:        4050 time   9.7964815223452497     
 H     -0.30860117      0.04445403     -0.29200207     -0.03262847      0.00505469      0.00478888
 H     -0.03395876     -0.08149162      0.36284893     -0.00233918     -0.00883539      0.00244299
    2
 MD step:        4100 time   9.9174257386705005     
 H     -0.31257162      0.04507648     -0.29148132     -0.03304597      0.00524615      0.00373316
 H     -0.03421745     -0.08257132      0.36320283     -0.00192168     -0.00902685      0.00349870
    2
 MD step:        4150 time   10.038369954995749     
 H     -0.31659805      0.04572459     -0.29110991     -0.03354886      0.00547676      0.00243513
 H     -0.03442016     -0.08367669      0.36370607     -0.00141879     -0.00925747      0.00479673
    2
 MD step:        4200 time   10.159314171321000     
 H     -0.32068525      0.04640058     -0.29090043     -0.03402304      0.00569421      0.00110314
 H     -0.03456209     -0.08480992      0.36437124     -0.00094461     -0.00947491      0.00612873
    2
 MD step:        4250 time   10.280258387646251     
 H     -0.32482091      0.04709879     -0.29081617     -0.03434130      0.00584016      0.00031840
 H     -0.03465556     -0.08596539      0.36516163     -0.00062635     -0.00962086      0.00691347
    2
 MD step:        4300 time   10.401202603971500     
 H     -0.32898765      0.04781124     -0.29081123     -0.03455824      0.00593964     -0.00021313
 H     -0.03471796     -0.08713510      0.36603135     -0.00040941     -0.00972035      0.00744500
    2
 MD step:        4350 time   10.522146820296751     
 H     -0.33318176      0.04853625     -0.29087255     -0.03481260      0.00605629     -0.00090608
 H     -0.03475299     -0.08831736      0.36696732     -0.00015505     -0.00983699      0.00813795
    2
 MD step:        4400 time   10.643091036622000     
 H     -0.33741039      0.04927709     -0.29103026     -0.03511677      0.00619577     -0.00168825
 H     -0.03475349     -0.08951546      0.36799969      0.00014912     -0.00997648      0.00892012
    2
 MD step:        4450 time   10.764035252947250     
 H     -0.34167216      0.05003313     -0.29128364     -0.03533574      0.00629619     -0.00237916
 H     -0.03472086     -0.09072875      0.36912772      0.00036809     -0.01007689      0.00961103
    2
 MD step:        4500 time   10.884979469272501     
 H     -0.34594987      0.05079648     -0.29158360     -0.03537642      0.00631485     -0.00255272
 H     -0.03467228     -0.09194935      0.37030233      0.00040877     -0.01009555      0.00978459
    2
 MD step:        4550 time   11.005923685597750     
 H     -0.35022459      0.05155846     -0.29188707     -0.03530591      0.00628251     -0.00243394
 H     -0.03462670     -0.09316858      0.37148046      0.00033826     -0.01006321      0.00966581
    2
 MD step:        4600 time   11.126867901923001     
 H     -0.35449107      0.05231666     -0.29217943     -0.03525753      0.00626032     -0.00248322
 H     -0.03458935     -0.09438404      0.37264746      0.00028988     -0.01004103      0.00971509
    2
 MD step:        4650 time   11.247812118248250     
 H     -0.35875518      0.05307377     -0.29248497     -0.03526209      0.00626242     -0.00260287
 H     -0.03455438     -0.09559840      0.37382766      0.00029444     -0.01004312      0.00983473
    2
 MD step:        4700 time   11.368756334573501     
 H     -0.36301795      0.05383026     -0.29281430     -0.03521627      0.00624140     -0.00272821
 H     -0.03452074     -0.09681215      0.37503164      0.00024862     -0.01002211      0.00996008
    2
 MD step:        4750 time   11.489700550898750     
 H     -0.36726620      0.05458010     -0.29313023     -0.03500677      0.00614533     -0.00246972
 H     -0.03450163     -0.09801925      0.37622222      0.00003912     -0.00992603      0.00970159
    2
 MD step:        4800 time   11.610644767224001     
 H     -0.37147905      0.05531371     -0.29338854     -0.03464038      0.00597731     -0.00175765
 H     -0.03451791     -0.09921011      0.37735519     -0.00032727     -0.00975801      0.00898952
    2
 MD step:        4850 time   11.731588983549251     
 H     -0.37564335      0.05602505     -0.29355693     -0.03422552      0.00578706     -0.00105371
 H     -0.03458275     -0.10037870      0.37839822     -0.00074213     -0.00956777      0.00828558
    2
 MD step:        4900 time   11.852533199874500     
 H     -0.37976006      0.05671456     -0.29364229     -0.03386766      0.00562295     -0.00043313
 H     -0.03469517     -0.10152547      0.37935824     -0.00109999     -0.00940366      0.00766499
    2
 MD step:        4950 time   11.973477416199751     
 H     -0.38383672      0.05738571     -0.29367409     -0.03355584      0.00547996     -0.00003055
 H     -0.03484765     -0.10265387      0.38026469     -0.00141181     -0.00926067      0.00726242
    2
 MD step:        5000 time   12.094421632525000     
 H     -0.38787448      0.05803903     -0.29365191     -0.03319597      0.00531493      0.00038900
 H     -0.03503902     -0.10376444      0.38111716     -0.00177168     -0.00909563      0.00684286
    2
 MD step:        5050 time   12.215365848850251     
 H     -0.39186156      0.05866909     -0.29355543     -0.03270275      0.00508875      0.00124923
 H     -0.03528108     -0.10485176      0.38189534     -0.00226490     -0.00886945      0.00598263
    2
 MD step:        5100 time   12.336310065175500     
 H     -0.39577902      0.05926724     -0.29334285     -0.03205794      0.00479306      0.00235066
 H     -0.03559276     -0.10590716      0.38255741     -0.00290971     -0.00857376      0.00488121
    2
 MD step:        5150 time   12.457254281500751     
 H     -0.39961338      0.05982728     -0.29298006     -0.03134858      0.00446775      0.00361609
 H     -0.03598753     -0.10692445      0.38306927     -0.00361907     -0.00824846      0.00361578
    2
 MD step:        5200 time   12.578198497826001     
 H     -0.40336360      0.06034873     -0.29247486     -0.03068171      0.00416194      0.00475611
 H     -0.03646644     -0.10790316      0.38343873     -0.00428594     -0.00794264      0.00247576
    2
 MD step:        5250 time   12.699142714151250     
 H     -0.40703918      0.06083595     -0.29184713     -0.03010408      0.00389705      0.00556073
 H     -0.03702000     -0.10884763      0.38368565     -0.00486357     -0.00767775      0.00167114
    2
 MD step:        5300 time   12.820086930476501     
 H     -0.41064864      0.06129285     -0.29112289     -0.02957855      0.00365606      0.00637815
 H     -0.03763967     -0.10976179      0.38383606     -0.00538910     -0.00743676      0.00085372
    2
 MD step:        5350 time   12.941031146801750     
 H     -0.41419102      0.06171899     -0.29030684     -0.02899260      0.00338735      0.00722532
 H     -0.03832643     -0.11064518      0.38389467     -0.00597505     -0.00716805      0.00000654
    2
 MD step:        5400 time   13.061975363127001     
 H     -0.41765512      0.06210923     -0.28936664     -0.02827173      0.00305677      0.00832698
 H     -0.03909146     -0.11149268      0.38382911     -0.00669592     -0.00683747     -0.00109511
    2
 MD step:        5450 time   13.182919579452250     
 H     -0.42102512      0.06245632     -0.28827422     -0.02744296      0.00267671      0.00976342
 H     -0.03995060     -0.11229703      0.38361135     -0.00752469     -0.00645742     -0.00253155
    2
 MD step:        5500 time   13.303863795777501     
 H     -0.42429239      0.06275630     -0.28700964     -0.02659221      0.00228657      0.01113307
 H     -0.04091246     -0.11305426      0.38322142     -0.00837544     -0.00606728     -0.00390121
    2
 MD step:        5550 time   13.424808012102751     
 H     -0.42746095      0.06301102     -0.28558200     -0.02582831      0.00193627      0.01239101
 H     -0.04197304     -0.11376623      0.38266843     -0.00913934     -0.00571697     -0.00515914
    2
 MD step:        5600 time   13.545752228428000     
 H     -0.43054392      0.06322648     -0.28402832     -0.02517876      0.00163840      0.01333042
 H     -0.04311921     -0.11443894      0.38198941     -0.00978889     -0.00541910     -0.00609856
    2
 MD step:        5650 time   13.666696444753251     
 H     -0.43355426      0.06340864     -0.28237036     -0.02459826      0.00137219      0.01403487
 H     -0.04433799     -0.11507836      0.38120610     -0.01036938     -0.00515290     -0.00680301
    2
 MD step:        5700 time   13.787640661078500     
 H     -0.43649463      0.06355871     -0.28061921     -0.02400281      0.00109913      0.01493310
 H     -0.04562676     -0.11568568      0.38032960     -0.01096484     -0.00487983     -0.00770123
    2
 MD step:        5750 time   13.908584877403751     
 H     -0.43935625      0.06367266     -0.27875723     -0.02330239      0.00077793      0.01595897
 H     -0.04699427     -0.11625689      0.37934227     -0.01166526     -0.00455863     -0.00872710
    2
 MD step:        5800 time   14.029529093729000     
 H     -0.44212748      0.06374517     -0.27675205     -0.02251873      0.00041856      0.01718222