    2
 MD step:           0 time   0.0000000000000000     
 H      0.00000000      0.00000000     -0.37000000      0.03213605     -0.00401816      0.00942666
 H      0.00000000      0.00000000      0.37000000      0.00563280     -0.02018614     -0.01094401
    2
 MD step:          50 time  0.12094421632525000     
 H      0.00388669     -0.00048596     -0.36887119      0.03213659     -0.00401783      0.00917129
 H      0.00068124     -0.00244141      0.36868767      0.00563226     -0.02018647     -0.01068863
    2
 MD step:         100 time  0.24188843265050000     
 H      0.00777358     -0.00097180     -0.36779503      0.03213992     -0.00401580      0.00860690
 H      0.00136227     -0.00488294      0.36742801      0.00562893     -0.02018850     -0.01012425
    2
 MD step:         150 time  0.36283264897575002     
 H      0.01166113     -0.00145723     -0.36680509      0.03214740     -0.00401123      0.00775003
 H      0.00204264     -0.00732488      0.36625454      0.00562145     -0.02019307     -0.00926737
    2
 MD step:         200 time  0.48377686530100000     
 H      0.01554975     -0.00194202     -0.36590854      0.03215699     -0.00400539      0.00707447
 H      0.00272195     -0.00976746      0.36517448      0.00561186     -0.02019891     -0.00859181
    2
 MD step:         250 time  0.60472108162625005     
 H      0.01943959     -0.00242605     -0.36509066      0.03216816     -0.00399857      0.00646177
 H      0.00340003     -0.01221080      0.36417309      0.00560069     -0.02020573     -0.00797911
    2
 MD step:         300 time  0.72566529795150003     
 H      0.02333111     -0.00290907     -0.36435119      0.03218590     -0.00398775      0.00568060
 H      0.00407643     -0.01465515      0.36325011      0.00558295     -0.02021655     -0.00719795
    2
 MD step:         350 time  0.84660951427675002     
 H      0.02722541     -0.00339039     -0.36372910      0.03221397     -0.00397063      0.00461502
 H      0.00475006     -0.01710120      0.36244450      0.00555488     -0.02023367     -0.00613236
    2
 MD step:         400 time  0.96755373060200001     
 H      0.03112350     -0.00386940     -0.36324213      0.03224722     -0.00395034      0.00346066
 H      0.00541989     -0.01954957      0.36177402      0.00552163     -0.02025396     -0.00497800
    2
 MD step:         450 time   1.0884979469272500     
 H      0.03502555     -0.00434599     -0.36287643      0.03227920     -0.00393083      0.00259362
 H      0.00608577     -0.02200035      0.36122481      0.00548965     -0.02027347     -0.00411096
    2
 MD step:         500 time   1.2094421632525001     
 H      0.03893161     -0.00482013     -0.36261673      0.03231534     -0.00390878      0.00167579
 H      0.00674762     -0.02445358      0.36078159      0.00545351     -0.02029552     -0.00319313
    2
 MD step:         550 time   1.3303863795777500     
 H      0.04284280     -0.00529114     -0.36247755      0.03236481     -0.00387861      0.00053883
 H      0.00740436     -0.02690993      0.36045889      0.00540404     -0.02032569     -0.00205618
    2
 MD step:         600 time   1.4513305959030001     
 H      0.04676065     -0.00575810     -0.36249024      0.03242306     -0.00384307     -0.00069155
 H      0.00805444     -0.02937034      0.36028808      0.00534578     -0.02036123     -0.00082580
    2
 MD step:         650 time   1.5722748122282502     
 H      0.05068536     -0.00622086     -0.36264169      0.03247683     -0.00381027     -0.00176276
 H      0.00869765     -0.03183495      0.36025601      0.00529202     -0.02039403      0.00024541
    2
 MD step:         700 time   1.6932190285535000     
 H      0.05461620     -0.00667989     -0.36290457      0.03252604     -0.00378025     -0.00258107
 H      0.00933474     -0.03430329      0.36033537      0.00524281     -0.02042405      0.00106373
    2
 MD step:         750 time   1.8141632448787501     
 H      0.05855347     -0.00713499     -0.36327643      0.03258529     -0.00374410     -0.00360067
 H      0.00996538     -0.03677556      0.36052372      0.00518356     -0.02046020      0.00208332
    2
 MD step:         800 time   1.9351074612040000     
 H      0.06249872     -0.00758523     -0.36377686      0.03265615     -0.00370088     -0.00472490
 H      0.01058806     -0.03925269      0.36084064      0.00511270     -0.02050342      0.00320755
    2
 MD step:         850 time   2.0560516775292501     
 H      0.06645240     -0.00803032     -0.36441161      0.03272116     -0.00366122     -0.00568016
 H      0.01120231     -0.04173497      0.36129187      0.00504769     -0.02054308      0.00416281
    2
 MD step:         900 time   2.1769958938545000     
 H      0.07041294     -0.00847123     -0.36514302      0.03277034     -0.00363122     -0.00637745
 H      0.01180969     -0.04422143      0.36183977      0.00499851     -0.02057308      0.00486011
    2
 MD step:         950 time   2.2979401101797499     
 H      0.07437908     -0.00890873     -0.36594935      0.03281714     -0.00360266     -0.00695703
 H      0.01241147     -0.04671131      0.36246259      0.00495170     -0.02060164      0.00543969
    2
 MD step:        1000 time   2.4188843265050002     
 H      0.07835157     -0.00934234     -0.36683947      0.03287548     -0.00356707     -0.00777323
 H      0.01300691     -0.04920506      0.36316919      0.00489336     -0.02063723      0.00625588
    2
 MD step:        1050 time   2.5398285428302501     
 H      0.08233131     -0.00977154     -0.36782293      0.03293299     -0.00353199     -0.00850251
 H      0.01359509     -0.05170323      0.36396914      0.00483586     -0.02067231      0.00698516
    2
 MD step:        1100 time   2.6607727591554999     
 H      0.08631679     -0.01019724     -0.36888256      0.03296799     -0.00351065     -0.00892579
 H      0.01417754     -0.05420490      0.36484526      0.00480086     -0.02069365      0.00740845
    2
 MD step:        1150 time   2.7817169754807503     
 H      0.09030501     -0.01062126     -0.36997444      0.03298150     -0.00350240     -0.00911828
 H      0.01475724     -0.05670826      0.36575362      0.00478735     -0.02070190      0.00760093
    2
 MD step:        1200 time   2.9026611918060001     
 H      0.09429464     -0.01104442     -0.37108691      0.03299468     -0.00349436     -0.00927558
 H      0.01533553     -0.05921246      0.36668258      0.00477417     -0.02070994      0.00775824
    2
 MD step:        1250 time   3.0236054081312500     
 H      0.09828645     -0.01146626     -0.37223081      0.03301591     -0.00348141     -0.00963865
 H      0.01591165     -0.06171800      0.36764296      0.00475294     -0.02072289      0.00812130
    2
 MD step:        1300 time   3.1445496244565003     
 H      0.10228041     -0.01188677     -0.37340748      0.03302566     -0.00347546     -0.00981921
 H      0.01648561     -0.06422485      0.36863611      0.00474319     -0.02072884      0.00830187
    2
 MD step:        1350 time   3.2654938407817502     
 H      0.10627370     -0.01230771     -0.37459291      0.03300306     -0.00348925     -0.00969034
 H      0.01706025     -0.06673128      0.36963803      0.00476579     -0.02071505      0.00817300
    2
 MD step:        1400 time   3.3864380571070001     
 H      0.11026238     -0.01273145     -0.37574409      0.03295343     -0.00351952     -0.00934174
 H      0.01763949     -0.06923491      0.37060570      0.00481542     -0.02068478      0.00782439
    2
 MD step:        1450 time   3.5073822734322500     
 H      0.11424467     -0.01315909     -0.37685167      0.03290127     -0.00355134     -0.00896582
 H      0.01822512     -0.07173465      0.37152977      0.00486758     -0.02065296      0.00744847
    2
 MD step:        1500 time   3.6283264897575003     
 H      0.11822124     -0.01359022     -0.37792528      0.03285722     -0.00357822     -0.00880050
 H      0.01881648     -0.07423088      0.37241986      0.00491163     -0.02062608      0.00728315
    2
 MD step:        1550 time   3.7492707060827501     
 H      0.12219222     -0.01402476     -0.37897101      0.03280401     -0.00361068     -0.00849686
 H      0.01941342     -0.07672371      0.37328208      0.00496484     -0.02059362      0.00697952
    2
 MD step:        1600 time   3.8702149224080000     
 H      0.12615481     -0.01446442     -0.37997173      0.03271641     -0.00366411     -0.00795350
 H      0.02001876     -0.07921142      0.37409928      0.00505244     -0.02054019      0.00643615
    2
 MD step:        1650 time   3.9911591387332503     
 H      0.13010446     -0.01491197     -0.38088626      0.03259294     -0.00373944     -0.00715675
 H      0.02063703     -0.08169124      0.37483030      0.00517591     -0.02046486      0.00563940
    2
 MD step:        1700 time   4.1121033550585002     
 H      0.13403821     -0.01536923     -0.38169885      0.03245796     -0.00382178     -0.00626849
 H      0.02127121     -0.08416136      0.37545937      0.00531089     -0.02038252      0.00475115
    2
 MD step:        1750 time   4.2330475713837501     
 H      0.13795621     -0.01583608     -0.38241388      0.03233360     -0.00389764     -0.00559554
 H      0.02192112     -0.08662187      0.37599089      0.00543525     -0.02030666      0.00407820
    2
 MD step:        1800 time   4.3539917877090000     
 H      0.14185974     -0.01631177     -0.38304829      0.03221596     -0.00396941     -0.00492044
 H      0.02258551     -0.08907356      0.37644179      0.00555289     -0.02023489      0.00340310
    2
 MD step:        1850 time   4.4749360040342498     
 H      0.14574798     -0.01679678     -0.38360406      0.03207767     -0.00405377     -0.00418553
 H      0.02326520     -0.09151591      0.37681404      0.00569117     -0.02015053      0.00266819
    2
 MD step:        1900 time   4.5958802203594997     
 H      0.14961720     -0.01729340     -0.38405095      0.03189974     -0.00416232     -0.00319341
 H      0.02396391     -0.09394666      0.37707742      0.00586911     -0.02004198      0.00167606
    2
 MD step:        1950 time   4.7168244366847505     
 H      0.15346296     -0.01780433     -0.38436541      0.03169347     -0.00428815     -0.00198274
 H      0.02468607     -0.09636310      0.37720837      0.00607538     -0.01991615      0.00046539
    2
 MD step:        2000 time   4.8377686530100004     
 H      0.15728354     -0.01833062     -0.38453621      0.03148808     -0.00441344     -0.00088745
 H      0.02543341     -0.09876418      0.37719565      0.00628077     -0.01979086     -0.00062990
    2
 MD step:        2050 time   4.9587128693352502     
 H      0.16108042     -0.01887137     -0.38458093      0.03130394     -0.00452578      0.00010649
 H      0.02620446     -0.10115080      0.37705685      0.00646491     -0.01967852     -0.00162384
    2
 MD step:        2100 time   5.0796570856605001     
 H      0.16485577     -0.01942525     -0.38452154      0.03112843     -0.00463284      0.00091466
 H      0.02699703     -0.10352429      0.37681396      0.00664042     -0.01957146     -0.00243200
    2
 MD step:        2150 time   5.2006013019857500     
 H      0.16860923     -0.01999249     -0.38435404      0.03093482     -0.00475095      0.00183891
 H      0.02781150     -0.10588442      0.37646294      0.00683403     -0.01945335     -0.00335626
    2
 MD step:        2200 time   5.3215455183109999     
 H      0.17233724     -0.02057525     -0.38406381      0.03070717     -0.00488983      0.00301421
 H      0.02865141     -0.10822904      0.37598920      0.00706168     -0.01931447     -0.00453155
    2
 MD step:        2250 time   5.4424897346362506     
 H      0.17603603     -0.02117583     -0.38362493      0.03045694     -0.00504248      0.00423988
 H      0.02952054     -0.11055582      0.37536680      0.00731191     -0.01916182     -0.00575722
    2
 MD step:        2300 time   5.5634339509615005     
 H      0.17970487     -0.02179469     -0.38303797      0.03021788     -0.00518831      0.00543916
 H      0.03041963     -0.11286433      0.37459632      0.00755097     -0.01901599     -0.00695651
    2
 MD step:        2350 time   5.6843781672867504     
 H      0.18334671     -0.02243002     -0.38232595      0.03001042     -0.00531487      0.00632484
 H      0.03134571     -0.11515637      0.37370079      0.00775843     -0.01888943     -0.00784218
    2
 MD step:        2400 time   5.8053223836120003     
 H      0.18696520     -0.02307959     -0.38151034      0.02982561     -0.00542761      0.00710676
 H      0.03229514     -0.11743417      0.37270167      0.00794324     -0.01877669     -0.00862411
    2
 MD step:        2450 time   5.9262665999372501     
 H      0.19056089     -0.02374307     -0.38060256      0.02963010     -0.00554688      0.00796833
 H      0.03326738     -0.11969806      0.37161037      0.00813874     -0.01865742     -0.00948567
    2
 MD step:        2500 time   6.0472108162625000     
 H      0.19413105     -0.02442213     -0.37958222      0.02940418     -0.00568470      0.00892662
 H      0.03426515     -0.12194637      0.37040652      0.00836467     -0.01851960     -0.01044396
    2
 MD step:        2550 time   6.1681550325877499     
 H      0.19767291     -0.02511845     -0.37843615      0.02916731     -0.00582920      0.01001424
 H      0.03529121     -0.12417742      0.36907693      0.00860154     -0.01837510     -0.01153159
    2
 MD step:        2600 time   6.2890992489130007     
 H      0.20118749     -0.02583141     -0.37717186      0.02895862     -0.00595651      0.01085653
 H      0.03634455     -0.12639183      0.36762913      0.00881023     -0.01824779     -0.01237387
    2
 MD step:        2650 time   6.4100434652382505     
 H      0.20467979     -0.02655797     -0.37581600      0.02879917     -0.00605378      0.01147990
 H      0.03742018     -0.12859265      0.36608976      0.00896968     -0.01815052     -0.01299724
    2
 MD step:        2700 time   6.5309876815635004     
 H      0.20815472     -0.02729512     -0.37440175      0.02866718     -0.00613430      0.01194749
 H      0.03851317     -0.13078287      0.36449200      0.00910167     -0.01807000     -0.01346484
    2
 MD step:        2750 time   6.6519318978887503     
 H      0.21161329     -0.02804224     -0.37292814      0.02852292     -0.00622230      0.01242816
 H      0.03962252     -0.13296311      0.36283487      0.00924593     -0.01798200     -0.01394551
    2
 MD step:        2800 time   6.7728761142140002     
 H      0.21505314     -0.02880079     -0.37138390      0.02835919     -0.00632219      0.01310635
 H      0.04075059     -0.13513193      0.36110712      0.00940966     -0.01788211     -0.01462369
    2
 MD step:        2850 time   6.8938203305392500     
 H      0.21847369     -0.02957111     -0.36976434      0.02821187     -0.00641206      0.01364153
 H      0.04189797     -0.13728898      0.35930405      0.00955698     -0.01779224     -0.01515887
    2
 MD step:        2900 time   7.0147645468644999     
 H      0.22187963     -0.03035035     -0.36809080      0.02812275     -0.00646642      0.01394750
 H      0.04305996     -0.13943711      0.35744699      0.00964610     -0.01773788     -0.01546484
    2
 MD step:        2950 time   7.1357087631897507     
 H      0.22527830     -0.03113402     -0.36640403      0.02808715     -0.00648814      0.01396844
 H      0.04422921     -0.14158081      0.35557670      0.00968170     -0.01771616     -0.01548578
    2
 MD step:        3000 time   7.2566529795150005     
 H      0.22867377     -0.03191965     -0.36471647      0.02806103     -0.00650408      0.01392633
 H      0.04540166     -0.14372256      0.35370563      0.00970782     -0.01770022     -0.01544368
    2
 MD step:        3050 time   7.3775971958402504     
 H      0.23206510     -0.03270779     -0.36302345      0.02801794     -0.00653036      0.01407575
 H      0.04657825     -0.14586178      0.35182910      0.00975091     -0.01767394     -0.01559310
    2
 MD step:        3100 time   7.4985414121655003     
 H      0.23545154     -0.03349892     -0.36131661      0.02798966     -0.00654761      0.01411595
 H      0.04775974     -0.14799802      0.34993875      0.00977919     -0.01765669     -0.01563330
    2
 MD step:        3150 time   7.6194856284907502     
 H      0.23883809     -0.03428999     -0.35961581      0.02802639     -0.00652520      0.01393034
 H      0.04894111     -0.15013432      0.34805443      0.00974246     -0.01767910     -0.01544769
    2
 MD step:        3200 time   7.7404298448160000     
 H      0.24223334     -0.03507575     -0.35796253      0.02812736     -0.00646361      0.01343105
 H      0.05011379     -0.15227593      0.34621763      0.00964149     -0.01774069     -0.01494840
    2
 MD step:        3250 time   7.8613740611412499     
 H      0.24564196     -0.03585335     -0.35636950      0.02823753     -0.00639640      0.01290260
 H      0.05127310     -0.15442570      0.34444109      0.00953132     -0.01780790     -0.01441994
    2
 MD step:        3300 time   7.9823182774665007     
 H      0.24906273     -0.03662354     -0.35482996      0.02832973     -0.00634016      0.01256177
 H      0.05242024     -0.15658289      0.34271804      0.00943912     -0.01786414     -0.01407911
    2
 MD step:        3350 time   8.1032624937917497     
 H      0.25249565     -0.03738631     -0.35333732      0.02844956     -0.00626706      0.01206952
 H      0.05355525     -0.15874748      0.34104189      0.00931929     -0.01793724     -0.01358686
    2
 MD step:        3400 time   8.2242067101170004     
 H      0.25594740     -0.03813760     -0.35191750      0.02864458     -0.00614808      0.01133807
 H      0.05467142     -0.16092356      0.33943855      0.00912427     -0.01805622     -0.01285541
    2
 MD step:        3450 time   8.3451509264422494     
 H      0.25942627     -0.03887235     -0.35060645      0.02888650     -0.00600051      0.01038907
 H      0.05576048     -0.16311618      0.33794398      0.00888235     -0.01820379     -0.01190642
    2
 MD step:        3500 time   8.4660951427675002     
 H      0.26293379     -0.03958962     -0.34940152      0.02911146     -0.00586327      0.00954303
 H      0.05682089     -0.16532628      0.33655554      0.00865739     -0.01834103     -0.01106038
    2
 MD step:        3550 time   8.5870393590927510     
 H      0.26646720     -0.04029110     -0.34828961      0.02932199     -0.00573484      0.00884231
 H      0.05785540     -0.16755218      0.33526012      0.00844686     -0.01846946     -0.01035966
    2
 MD step:        3600 time   8.7079835754179999     
 H      0.27002861     -0.04097549     -0.34727340      0.02958417     -0.00557490      0.00789256
 H      0.05886191     -0.16979516      0.33406039      0.00818468     -0.01862940     -0.00940990
    2
 MD step:        3650 time   8.8289277917432507     
 H      0.27362584     -0.04163803     -0.34638338      0.02990800     -0.00537735      0.00678267
 H      0.05983260     -0.17205999      0.33298686      0.00786085     -0.01882695     -0.00830002
    2
 MD step:        3700 time   8.9498720080684997     
 H      0.27726279     -0.04227634     -0.34563481      0.03022714     -0.00518267      0.00567575
 H      0.06076357     -0.17434905      0.33205477      0.00754171     -0.01902163     -0.00719310
    2
 MD step:        3750 time   9.0708162243937505     
 H      0.28093550     -0.04289284     -0.34500347      0.03050197     -0.00501501      0.00477574
 H      0.06165879     -0.17665992      0.33123992      0.00726688     -0.01918929     -0.00629308
    2
 MD step:        3800 time   9.1917604407189994     
 H      0.28464133     -0.04348913     -0.34447978      0.03078675     -0.00484128      0.00387916
 H      0.06252088     -0.17899100      0.33053272      0.00698210     -0.01936302     -0.00539650
    2
 MD step:        3850 time   9.3127046570442502     
 H      0.28838507     -0.04406230     -0.34407841      0.03112871     -0.00463267      0.00270775
 H      0.06334507     -0.18134520      0.32994783      0.00664014     -0.01957163     -0.00422509
    2
 MD step:        3900 time   9.4336488733695010     
 H      0.29217138     -0.04460949     -0.34381780      0.03147615     -0.00442072      0.00160473
 H      0.06412669     -0.18372537      0.32950371      0.00629270     -0.01978358     -0.00312208
    2
 MD step:        3950 time   9.5545930896947500     
 H      0.29599629     -0.04513314     -0.34368290      0.03176197     -0.00424636      0.00070380
 H      0.06486970     -0.18612909      0.32918530      0.00600688     -0.01995794     -0.00222115
    2
 MD step:        4000 time   9.6755373060200007     
 H      0.29985278     -0.04563752     -0.34364214      0.03201147     -0.00409415     -0.00004365
 H      0.06558113     -0.18855209      0.32896102      0.00575738     -0.02011015     -0.00147370
    2
 MD step:        4050 time   9.7964815223452497     
 H      0.30374095     -0.04612258     -0.34370028      0.03229259     -0.00392266     -0.00090856
 H      0.06626088     -0.19099440      0.32883564      0.00547626     -0.02028164     -0.00060878
    2
 MD step:        4100 time   9.9174257386705005     
 H      0.30766498     -0.04658576     -0.34387063      0.03259341     -0.00373915     -0.00191479
 H      0.06690478     -0.19345859      0.32882248      0.00517544     -0.02046515      0.00039744
    2
 MD step:        4150 time   10.038369954995749     
 H      0.31162243     -0.04702856     -0.34414701      0.03283369     -0.00359257     -0.00262798
 H      0.06751525     -0.19594316      0.32891535      0.00493516     -0.02061173      0.00111064
    2
 MD step:        4200 time   10.159314171321000     
 H      0.31560385     -0.04745673     -0.34449737      0.03299564     -0.00349377     -0.00311924
 H      0.06810175     -0.19844236      0.32908219      0.00477321     -0.02071053      0.00160189
    2
 MD step:        4250 time   10.280258387646251     
 H      0.31960312     -0.04787401     -0.34489849      0.03314310     -0.00340382     -0.00355176
 H      0.06867041     -0.20095244      0.32929980      0.00462575     -0.02080048      0.00203442
    2
 MD step:        4300 time   10.401202603971500     
 H      0.32362185     -0.04827942     -0.34536345      0.03331603     -0.00329832     -0.00410489
 H      0.06921960     -0.20347441      0.32958124      0.00445282     -0.02090598      0.00258755
    2
 MD step:        4350 time   10.522146820296751     
 H      0.32766085     -0.04867247     -0.34589403      0.03346454     -0.00320773     -0.00465365
 H      0.06974853     -0.20600873      0.32992831      0.00430431     -0.02099657      0.00313631
    2
 MD step:        4400 time   10.643091036622000     
 H      0.33171269     -0.04905768     -0.34646975      0.03352161     -0.00317291     -0.00483229
 H      0.07026461     -0.20855089      0.33032051      0.00424724     -0.02103139      0.00331494
    2
 MD step:        4450 time   10.764035252947250     
 H      0.33576620     -0.04944187     -0.34705602      0.03350270     -0.00318445     -0.00483644
 H      0.07077902     -0.21109407      0.33072328      0.00426615     -0.02101985      0.00331910
    2
 MD step:        4500 time   10.884979469272501     
 H      0.33981635     -0.04982812     -0.34763705      0.03347792     -0.00319957     -0.00481286
 H      0.07129680     -0.21363519      0.33112079      0.00429093     -0.02100473      0.00329552
    2
 MD step:        4550 time   11.005923685597750     
 H      0.34386482     -0.05021539     -0.34822698      0.03347175     -0.00320333     -0.00490335
 H      0.07181626     -0.21617529      0.33152721      0.00429710     -0.02100097      0.00338601
    2
 MD step:        4600 time   11.126867901923001     
 H      0.34791114     -0.05060396     -0.34882360      0.03342800     -0.00323002     -0.00495164
 H      0.07233786     -0.21871408      0.33194032      0.00434085     -0.02097428      0.00343430
    2
 MD step:        4650 time   11.247812118248250     
 H      0.35194675     -0.05099908     -0.34940591      0.03328908     -0.00331477     -0.00464097
 H      0.07287017     -0.22124634      0.33233911      0.00447977     -0.02088953      0.00312362
    2
 MD step:        4700 time   11.368756334573501     
 H      0.35596018     -0.05140772     -0.34994060      0.03307105     -0.00344777     -0.00417146
 H      0.07342466     -0.22376507      0.33269029      0.00469780     -0.02075653      0.00265411
    2
 MD step:        4750 time   11.489700550898750     
 H      0.35994579     -0.05183334     -0.35041168      0.03284172     -0.00358767     -0.00365135
 H      0.07400698     -0.22626682      0.33297785      0.00492713     -0.02061663      0.00213400
    2
 MD step:        4800 time   11.610644767224001     
 H      0.36390513     -0.05227498     -0.35083228      0.03263586     -0.00371325     -0.00327350
 H      0.07461556     -0.22875255      0.33321493      0.00513298     -0.02049105      0.00175615
    2
 MD step:        4850 time   11.731588983549251     
 H      0.36783965     -0.05273176     -0.35120593      0.03241822     -0.00384603     -0.00292234
 H      0.07524896     -0.23122314      0.33340508      0.00535063     -0.02035827      0.00140500
    2
 MD step:        4900 time   11.852533199874500     
 H      0.37174406     -0.05320691     -0.35152402      0.03212866     -0.00402266     -0.00229473
 H      0.07591248     -0.23367535      0.33353965      0.00564019     -0.02018163      0.00077739
    2
 MD step:        4950 time   11.973477416199751     
 H      0.37560765     -0.05370696     -0.35175645      0.03174949     -0.00425397     -0.00149847
 H      0.07661681     -0.23610268      0.33358857      0.00601936     -0.01995033     -0.00001888
    2
 MD step:        5000 time   12.094421632525000     
 H      0.37942241     -0.05423681     -0.35188063      0.03133337     -0.00450782     -0.00056871
 H      0.07736998     -0.23850020      0.33352923      0.00643548     -0.01969648     -0.00094863
    2
 MD step:        5050 time   12.215365848850251     
 H      0.38318795     -0.05479667     -0.35190236      0.03094171     -0.00474675      0.00021916
 H      0.07817237     -0.24086771      0.33336744      0.00682714     -0.01945755     -0.00173650
    2
 MD step:        5100 time   12.336310065175500     
 H      0.38690866     -0.05538388     -0.35183295      0.03058440     -0.00496472      0.00087576
 H      0.07901957     -0.24320787      0.33311452      0.00718445     -0.01923958     -0.00239311
    2
 MD step:        5150 time   12.457254281500751     
 H      0.39058557     -0.05599782     -0.35168343      0.03020964     -0.00519334      0.00163463
 H      0.07991059     -0.24552130      0.33278149      0.00755921     -0.01901096     -0.00315198
    2
 MD step:        5200 time   12.578198497826001     
 H      0.39421291     -0.05664199     -0.35143732      0.02976251     -0.00546611      0.00249121
 H      0.08085117     -0.24780450      0.33235187      0.00800634     -0.01873819     -0.00400855
    2
 MD step:        5250 time   12.699142714151250     
 H      0.39778183     -0.05732181     -0.35106988      0.02924824     -0.00577983      0.00358226
 H      0.08185018     -0.25005205      0.33180091      0.00852061     -0.01842447     -0.00509960
    2
 MD step:        5300 time   12.820086930476501     
 H      0.40128745     -0.05804023     -0.35057268      0.02872689     -0.00609787      0.00464144
 H      0.08291248     -0.25226100      0.33112020      0.00904196     -0.01810643     -0.00615878
    2
 MD step:        5350 time   12.941031146801750     
 H      0.40473274     -0.05879546     -0.34995171      0.02825651     -0.00638482      0.00555372
 H      0.08403512     -0.25443313      0.33031571      0.00951234     -0.01781948     -0.00707107
    2
 MD step:        5400 time   13.061975363127001     
 H      0.40812429     -0.05958348     -0.34923235      0.02783681     -0.00664086      0.00635714
 H      0.08521149     -0.25657249      0.32941284      0.00993204     -0.01756344     -0.00787449
    2
 MD step:        5450 time   13.182919579452250     
 H      0.41146526     -0.06040235     -0.34842094      0.02740762     -0.00690268      0.00708157
 H      0.08643844     -0.25868099      0.32841792      0.01036123     -0.01730162     -0.00859891
    2
 MD step:        5500 time   13.303863795777501     
 H      0.41475156     -0.06125457     -0.34750678      0.02692526     -0.00719694      0.00803070
 H      0.08772006     -0.26075614      0.32732024      0.01084359     -0.01700736     -0.00954805
    2
 MD step:        5550 time   13.424808012102751     
 H      0.41797645     -0.06214425     -0.34647494      0.02639972     -0.00751753      0.00906034
 H      0.08906310     -0.26279383      0.32610489      0.01136913     -0.01668677     -0.01057769
    2
 MD step:        5600 time   13.545752228428000     
 H      0.42113814     -0.06307249     -0.34531667      0.02589390     -0.00782611      0.01004427
 H      0.09046933     -0.26479296      0.32476310      0.01187495     -0.01637819     -0.01156162
    2
 MD step:        5650 time   13.666696444753251     
 H      0.42424279     -0.06403552     -0.34405331      0.02546193     -0.00808962      0.01084783
 H      0.09193261     -0.26675730      0.32331623      0.01230692     -0.01611468     -0.01236517
    2
 MD step:        5700 time   13.787640661078500     
 H      0.42729988     -0.06502757     -0.34270596      0.02509691     -0.00831230      0.01140272
 H      0.09344344     -0.26869262      0.32178537      0.01267194     -0.01589200     -0.01292006
    2
 MD step:        5750 time   13.908584877403751     
 H      0.43031426     -0.06604567     -0.34128789      0.02474216     -0.00852871      0.01203714
 H      0.09499699     -0.27060188      0.32018378      0.01302669     -0.01567559     -0.01355448
    2
 MD step:        5800 time   14.029529093729000     
 H      0.43328325     -0.06709147     -0.33979303      0.02434699     -0.00876978      0.01273832