    2
 MD step:           0 time   0.0000000000000000     
 H      0.00000000      0.00000000     -0.37000000     -0.02511799     -0.02201738     -0.01813005
 H      0.00000000      0.00000000      0.37000000     -0.02811196     -0.02384993      0.01663294
    2
 MD step:          50 time  0.12094421632525000     
 H     -0.00303788     -0.00266288     -0.37219648     -0.02511799     -0.02201738     -0.01817529
 H     -0.00339998     -0.00288451      0.37201541     -0.02811197     -0.02384993      0.01667818
    2
 MD step:         100 time  0.24188843265050000     
 H     -0.00607575     -0.00532575     -0.37439471     -0.02511808     -0.02201744     -0.01815344
 H     -0.00679996     -0.00576902      0.37403258     -0.02811188     -0.02384988      0.01665634
    2
 MD step:         150 time  0.36283264897575002     
 H     -0.00911366     -0.00798865     -0.37657640     -0.02511847     -0.02201768     -0.01788073
 H     -0.01019991     -0.00865351      0.37603320     -0.02811149     -0.02384964      0.01638362
    2
 MD step:         200 time  0.48377686530100000     
 H     -0.01215164     -0.01065158     -0.37871215     -0.02511928     -0.02201817     -0.01741069
 H     -0.01359978     -0.01153796      0.37798788     -0.02811068     -0.02384914      0.01591359
    2
 MD step:         250 time  0.60472108162625005     
 H     -0.01518974     -0.01331460     -0.38078469     -0.02512060     -0.02201898     -0.01685046
 H     -0.01699953     -0.01442233      0.37987936     -0.02810935     -0.02384833      0.01535335
    2
 MD step:         300 time  0.72566529795150003     
 H     -0.01822805     -0.01597774     -0.38278107     -0.02512267     -0.02202025     -0.01613112
 H     -0.02039908     -0.01730658      0.38169467     -0.02810729     -0.02384707      0.01463402
    2
 MD step:         350 time  0.84660951427675002     
 H     -0.02126666     -0.01864106     -0.38468088     -0.02512547     -0.02202196     -0.01525624
 H     -0.02379833     -0.02019064      0.38341342     -0.02810448     -0.02384535      0.01375913
    2
 MD step:         400 time  0.96755373060200001     
 H     -0.02430565     -0.02130462     -0.38646529     -0.02512912     -0.02202420     -0.01423858
 H     -0.02719720     -0.02307447      0.38501676     -0.02810084     -0.02384312      0.01274147
    2
 MD step:         450 time   1.0884979469272500     
 H     -0.02734514     -0.02396848     -0.38812145     -0.02513377     -0.02202704     -0.01313092
 H     -0.03059556     -0.02595799      0.38649185     -0.02809619     -0.02384027      0.01163382
    2
 MD step:         500 time   1.2094421632525001     
 H     -0.03038525     -0.02663273     -0.38963928     -0.02513932     -0.02203044     -0.01195365
 H     -0.03399330     -0.02884113      0.38782861     -0.02809064     -0.02383688      0.01045655
    2
 MD step:         550 time   1.3303863795777500     
 H     -0.03342609     -0.02929742     -0.39100588     -0.02514587     -0.02203444     -0.01061985
 H     -0.03739032     -0.03172383      0.38901415     -0.02808409     -0.02383287      0.00912274
    2
 MD step:         600 time   1.4513305959030001     
 H     -0.03646779     -0.03196263     -0.39220515     -0.02515354     -0.02203914     -0.00920408
 H     -0.04078647     -0.03460600      0.39003235     -0.02807642     -0.02382817      0.00770698
    2
 MD step:         650 time   1.5722748122282502     
 H     -0.03951048     -0.03462845     -0.39323262     -0.02516213     -0.02204440     -0.00779374
 H     -0.04418164     -0.03748757      0.39087876     -0.02806783     -0.02382291      0.00629663
    2
 MD step:         700 time   1.6932190285535000     
 H     -0.04255426     -0.03729494     -0.39408693     -0.02517165     -0.02205023     -0.00630237
 H     -0.04757572     -0.04036847      0.39155200     -0.02805831     -0.02381709      0.00480526
    2
 MD step:         750 time   1.8141632448787501     
 H     -0.04559925     -0.03996217     -0.39475230     -0.02518231     -0.02205675     -0.00469530
 H     -0.05096858     -0.04324862      0.39203631     -0.02804765     -0.02381056      0.00319819
    2
 MD step:         800 time   1.9351074612040000     
 H     -0.04864560     -0.04263023     -0.39522365     -0.02519381     -0.02206379     -0.00311723
 H     -0.05436009     -0.04612794      0.39232659     -0.02803615     -0.02380352      0.00162012
    2
 MD step:         850 time   2.0560516775292501     
 H     -0.05169337     -0.04529916     -0.39550892     -0.02520596     -0.02207123     -0.00158546
 H     -0.05775017     -0.04900640      0.39243080     -0.02802399     -0.02379608      0.00008835
    2
 MD step:         900 time   2.1769958938545000     
 H     -0.05474267     -0.04796903     -0.39560141     -0.02521912     -0.02207928      0.00006766
 H     -0.06113873     -0.05188392      0.39234222     -0.02801084     -0.02378803     -0.00156477
    2
 MD step:         950 time   2.2979401101797499     
 H     -0.05779361     -0.05063990     -0.39549295     -0.02523295     -0.02208775      0.00171116
 H     -0.06452564     -0.05476043      0.39205269     -0.02799701     -0.02377957     -0.00320827
    2
 MD step:        1000 time   2.4188843265050002     
 H     -0.06084624     -0.05331181     -0.39519378     -0.02524704     -0.02209637      0.00322051
 H     -0.06791087     -0.05763591      0.39157246     -0.02798291     -0.02377094     -0.00471762
    2
 MD step:        1050 time   2.5398285428302501     
 H     -0.06390060     -0.05598478     -0.39471143     -0.02526177     -0.02210539      0.00477324
 H     -0.07129436     -0.06051033      0.39090903     -0.02796819     -0.02376192     -0.00627034
    2
 MD step:        1100 time   2.6607727591554999     
 H     -0.06695678     -0.05865886     -0.39403873     -0.02527690     -0.02211465      0.00634185
 H     -0.07467603     -0.06338364      0.39005527     -0.02795306     -0.02375267     -0.00783895
    2
 MD step:        1150 time   2.7817169754807503     
 H     -0.07001479     -0.06133405     -0.39318326     -0.02529186     -0.02212380      0.00777014
 H     -0.07805589     -0.06625583      0.38901874     -0.02793810     -0.02374351     -0.00926725
    2
 MD step:        1200 time   2.9026611918060001     
 H     -0.07307459     -0.06401035     -0.39216279     -0.02530684     -0.02213297      0.00911265
 H     -0.08143394     -0.06912692      0.38781720     -0.02792312     -0.02373434     -0.01060975
    2
 MD step:        1250 time   3.0236054081312500     
 H     -0.07613622     -0.06668776     -0.39097866     -0.02532181     -0.02214213      0.01045915
 H     -0.08481017     -0.07199689      0.38645200     -0.02790815     -0.02372518     -0.01195626
    2
 MD step:        1300 time   3.1445496244565003     
 H     -0.07919962     -0.06936626     -0.38963686     -0.02533609     -0.02215087      0.01169817
 H     -0.08818462     -0.07486578      0.38492914     -0.02789387     -0.02371644     -0.01319528
    2
 MD step:        1350 time   3.2654938407817502     
 H     -0.08226470     -0.07204578     -0.38815674     -0.02534967     -0.02215919      0.01276369
 H     -0.09155740     -0.07773364      0.38326795     -0.02788029     -0.02370813     -0.01426079
    2
 MD step:        1400 time   3.3864380571070001     
 H     -0.08533139     -0.07472629     -0.38655148     -0.02536261     -0.02216711      0.01376410
 H     -0.09492857     -0.08060052      0.38148162     -0.02786735     -0.02370020     -0.01526120
    2
 MD step:        1450 time   3.5073822734322500     
 H     -0.08839956     -0.07740771     -0.38483140     -0.02537418     -0.02217419      0.01466174
 H     -0.09829825     -0.08346648      0.37958047     -0.02785578     -0.02369312     -0.01615885
    2
 MD step:        1500 time   3.6283264897575003     
 H     -0.09146905     -0.08008994     -0.38301231     -0.02538437     -0.02218043      0.01538940
 H     -0.10166661     -0.08633164      0.37758032     -0.02784559     -0.02368688     -0.01688650
    2
 MD step:        1550 time   3.7492707060827501     
 H     -0.09453969     -0.08277287     -0.38111456     -0.02539311     -0.02218578      0.01596096
 H     -0.10503383     -0.08919610      0.37550151     -0.02783685     -0.02368154     -0.01745806
    2
 MD step:        1600 time   3.8702149224080000     
 H     -0.09761125     -0.08545636     -0.37915835     -0.02539959     -0.02218975      0.01637547
 H     -0.10840012     -0.09205999      0.37336423     -0.02783036     -0.02367757     -0.01787257
    2
 MD step:        1650 time   3.9911591387332503     
 H     -0.10068348     -0.08814027     -0.37715778     -0.02540413     -0.02219252      0.01667701
 H     -0.11176575     -0.09492347      0.37118259     -0.02782583     -0.02367479     -0.01817412
    2
 MD step:        1700 time   4.1121033550585002     
 H     -0.10375613     -0.09082442     -0.37513246     -0.02540629     -0.02219384      0.01676909
 H     -0.11513096     -0.09778670      0.36897620     -0.02782367     -0.02367347     -0.01826620
    2
 MD step:        1750 time   4.2330475713837501     
 H     -0.10682884     -0.09350862     -0.37311226     -0.02540527     -0.02219322      0.01662000
 H     -0.11849610     -0.10064989      0.36677494     -0.02782469     -0.02367409     -0.01811711
    2
 MD step:        1800 time   4.3539917877090000     
 H     -0.10990127     -0.09619265     -0.37111425     -0.02540182     -0.02219111      0.01639821
 H     -0.12186152     -0.10351325      0.36459586     -0.02782814     -0.02367620     -0.01789532
    2
 MD step:        1850 time   4.4749360040342498     
 H     -0.11297311     -0.09887631     -0.36915381     -0.02539511     -0.02218700      0.01597178
 H     -0.12522754     -0.10637697      0.36245436     -0.02783485     -0.02368031     -0.01746889
    2
 MD step:        1900 time   4.5958802203594997     
 H     -0.11604390     -0.10155933     -0.36726333     -0.02538461     -0.02218057      0.01526479
 H     -0.12859461     -0.10924134      0.36038281     -0.02784535     -0.02368674     -0.01676190
    2
 MD step:        1950 time   4.7168244366847505     
 H     -0.11911324     -0.10424147     -0.36546409     -0.02537120     -0.02217237      0.01446494
 H     -0.13196312     -0.11210659      0.35840250     -0.02785876     -0.02369495     -0.01596204
    2
 MD step:        2000 time   4.8377686530100004     
 H     -0.12218074     -0.10692247     -0.36377119     -0.02535389     -0.02216177      0.01349623
 H     -0.13533348     -0.11497297      0.35652853     -0.02787607     -0.02370554     -0.01499334
    2
 MD step:        2050 time   4.9587128693352502     
 H     -0.12524591     -0.10960205     -0.36220903     -0.02533294     -0.02214895      0.01231016
 H     -0.13870616     -0.11784078      0.35478531     -0.02789701     -0.02371836     -0.01380727
    2
 MD step:        2100 time   5.0796570856605001     
 H     -0.12830835     -0.11227996     -0.36079950     -0.02530853     -0.02213401      0.01096186
 H     -0.14208158     -0.12071025      0.35319472     -0.02792142     -0.02373330     -0.01245897
    2
 MD step:        2150 time   5.2006013019857500     
 H     -0.13136760     -0.11495592     -0.35956198     -0.02528036     -0.02211676      0.00949726
 H     -0.14546019     -0.12358168      0.35177613     -0.02794960     -0.02375055     -0.01099437
    2
 MD step:        2200 time   5.3215455183109999     
 H     -0.13442326     -0.11762968     -0.35850622     -0.02524932     -0.02209777      0.00793950
 H     -0.14884238     -0.12645530      0.35053930     -0.02798064     -0.02376955     -0.00943660
    2
 MD step:        2250 time   5.4424897346362506     
 H     -0.13747496     -0.12030102     -0.35765013     -0.02521458     -0.02207650      0.00617749
 H     -0.15222853     -0.12933135      0.34950214     -0.02801538     -0.02379081     -0.00767459
    2
 MD step:        2300 time   5.5634339509615005     
 H     -0.14052228     -0.12296968     -0.35701302     -0.02517739     -0.02205374      0.00437035
 H     -0.15561906     -0.13221008      0.34868396     -0.02805257     -0.02381357     -0.00586746
    2
 MD step:        2350 time   5.6843781672867504     
 H     -0.14356499     -0.12563551     -0.35659405     -0.02513800     -0.02202963      0.00254730
 H     -0.15901422     -0.13509164      0.34808393     -0.02809196     -0.02383768     -0.00404441
    2
 MD step:        2400 time   5.8053223836120003     
 H     -0.14660277     -0.12829833     -0.35640187     -0.02509616     -0.02200402      0.00061277
 H     -0.16241429     -0.13797621      0.34771068     -0.02813379     -0.02386329     -0.00210988
    2
 MD step:        2450 time   5.9262665999372501     
 H     -0.14963544     -0.13095801     -0.35644490     -0.02505350     -0.02197791     -0.00132459
 H     -0.16581948     -0.14086390      0.34757265     -0.02817645     -0.02388940     -0.00017251
    2
 MD step:        2500 time   6.0472108162625000     
 H     -0.15266286     -0.13361449     -0.35672270     -0.02500952     -0.02195099     -0.00325248
 H     -0.16922991     -0.14375481      0.34766939     -0.02822044     -0.02391632      0.00175538
    2
 MD step:        2550 time   6.1681550325877499     
 H     -0.15568496     -0.13626771     -0.35722822     -0.02496581     -0.02192423     -0.00509990
 H     -0.17264566     -0.14664898      0.34799384     -0.02826415     -0.02394308      0.00360279
    2
 MD step:        2600 time   6.2890992489130007     
 H     -0.15870181     -0.13891772     -0.35795588     -0.02492231     -0.02189761     -0.00694700
 H     -0.17606667     -0.14954636      0.34854043     -0.02830765     -0.02396970      0.00544990
    2
 MD step:        2650 time   6.4100434652382505     
 H     -0.16171341     -0.14156451     -0.35890651     -0.02487962     -0.02187148     -0.00873127
 H     -0.17949292     -0.15244695      0.34930999     -0.02835033     -0.02399583      0.00723417
    2
 MD step:        2700 time   6.5309876815635004     
 H     -0.16472000     -0.14420824     -0.36006000     -0.02483936     -0.02184684     -0.01032357
 H     -0.18292419     -0.15535061      0.35028241     -0.02839059     -0.02402047      0.00882646
    2
 MD step:        2750 time   6.6519318978887503     
 H     -0.16772183     -0.14684904     -0.36140099     -0.02480075     -0.02182321     -0.01185117
 H     -0.18636022     -0.15825719      0.35144234     -0.02842920     -0.02404410      0.01035407
    2
 MD step:        2800 time   6.7728761142140002     
 H     -0.17071916     -0.14948710     -0.36292148     -0.02476550     -0.02180163     -0.01325376
 H     -0.18980074     -0.16116652      0.35278176     -0.02846445     -0.02406568      0.01175666
    2
 MD step:        2850 time   6.8938203305392500     
 H     -0.17371244     -0.15212268     -0.36460071     -0.02473352     -0.02178206     -0.01448573
 H     -0.19324532     -0.16407832      0.35427992     -0.02849643     -0.02408525      0.01298862
    2
 MD step:        2900 time   7.0147645468644999     
 H     -0.17670208     -0.15475603     -0.36641678     -0.02470548     -0.02176489     -0.01551848
 H     -0.19669354     -0.16699236      0.35591493     -0.02852448     -0.02410242      0.01402138
    2
 MD step:        2950 time   7.1357087631897507     
 H     -0.17968861     -0.15738748     -0.36834793     -0.02468227     -0.02175069     -0.01639411
 H     -0.20014486     -0.16990830      0.35766502     -0.02854769     -0.02411663      0.01489700
    2
 MD step:        3000 time   7.2566529795150005     
 H     -0.18267257     -0.16001735     -0.37037917     -0.02466284     -0.02173880     -0.01716237
 H     -0.20359875     -0.17282581      0.35951519     -0.02856711     -0.02412851      0.01566527
    2
 MD step:        3050 time   7.3775971958402504     
 H     -0.18565451     -0.16264600     -0.37248662     -0.02464925     -0.02173048     -0.01764376
 H     -0.20705467     -0.17574455      0.36144157     -0.02858071     -0.02413684      0.01614665
    2
 MD step:        3100 time   7.4985414121655003     
 H     -0.18863515     -0.16527384     -0.37463959     -0.02464093     -0.02172538     -0.01794150
 H     -0.21051188     -0.17866410      0.36341348     -0.02858903     -0.02414193      0.01644439
    2
 MD step:        3150 time   7.6194856284907502     
 H     -0.19161503     -0.16790122     -0.37682459     -0.02463699     -0.02172297     -0.01816480
 H     -0.21396986     -0.18158411      0.36541741     -0.02859296     -0.02414434      0.01666769
    2
 MD step:        3200 time   7.7404298448160000     
 H     -0.19459483     -0.17052854     -0.37902160     -0.02463951     -0.02172451     -0.01812246
 H     -0.21742792     -0.18450417      0.36743335     -0.02859045     -0.02414280      0.01662535
    2
 MD step:        3250 time   7.8613740611412499     
 H     -0.19757525     -0.17315625     -0.38120030     -0.02464719     -0.02172922     -0.01787933
 H     -0.22088535     -0.18742385      0.36943099     -0.02858277     -0.02413810      0.01638222
    2
 MD step:        3300 time   7.9823182774665007     
 H     -0.20055689     -0.17578470     -0.38334313     -0.02465971     -0.02173688     -0.01753960
 H     -0.22434157     -0.19034278      0.37139275     -0.02857025     -0.02413043      0.01604249
    2
 MD step:        3350 time   8.1032624937917497     
 H     -0.20354041     -0.17841431     -0.38543493     -0.02467833     -0.02174827     -0.01701982
 H     -0.22779591     -0.19326056      0.37330348     -0.02855163     -0.02411904      0.01552272
    2
 MD step:        3400 time   8.2242067101170004     
 H     -0.20652646     -0.18104546     -0.38745376     -0.02470154     -0.02176248     -0.01633214
 H     -0.23124770     -0.19617679      0.37514125     -0.02852842     -0.02410483      0.01483504
    2
 MD step:        3450 time   8.3451509264422494     
 H     -0.20951562     -0.18367852     -0.38937911     -0.02472965     -0.02177969     -0.01549130
 H     -0.23469640     -0.19909112      0.37688553     -0.02850031     -0.02408763      0.01399419
    2
 MD step:        3500 time   8.4660951427675002     
 H     -0.21250850     -0.18631385     -0.39119644     -0.02476307     -0.02180014     -0.01454329
 H     -0.23814138     -0.20200317      0.37852180     -0.02846689     -0.02406717      0.01304618
    2
 MD step:        3550 time   8.5870393590927510     
 H     -0.21550566     -0.18895181     -0.39289439     -0.02480014     -0.02182283     -0.01351296
 H     -0.24158208     -0.20491261      0.38003868     -0.02842982     -0.02404448      0.01201586
    2
 MD step:        3600 time   8.7079835754179999     
 H     -0.21850755     -0.19159266     -0.39445695     -0.02484162     -0.02184822     -0.01230052
 H     -0.24501804     -0.20781914      0.38142017     -0.02838834     -0.02401909      0.01080341
    2
 MD step:        3650 time   8.8289277917432507     
 H     -0.22151474     -0.19423675     -0.39586633     -0.02488756     -0.02187634     -0.01099662
 H     -0.24844871     -0.21072244      0.38264848     -0.02834240     -0.02399097      0.00949951
    2
 MD step:        3700 time   8.9498720080684997     
 H     -0.22452766     -0.19688435     -0.39711746     -0.02493610     -0.02190605     -0.00969423
 H     -0.25187364     -0.21362222      0.38371855     -0.02829386     -0.02396126      0.00819712
    2
 MD step:        3750 time   9.0708162243937505     
 H     -0.22754662     -0.19953565     -0.39820574     -0.02498780     -0.02193769     -0.00826757
 H     -0.25529254     -0.21651831      0.38462577     -0.02824216     -0.02392962      0.00677046
    2
 MD step:        3800 time   9.1917604407189994     
 H     -0.23057207     -0.20219092     -0.39911253     -0.02504315     -0.02197158     -0.00672067
 H     -0.25870494     -0.21941043      0.38535148     -0.02818680     -0.02389574      0.00522357
    2
 MD step:        3850 time   9.3127046570442502     
 H     -0.23360434     -0.20485036     -0.39983261     -0.02510017     -0.02200648     -0.00520513
 H     -0.26211053     -0.22229837      0.38589051     -0.02812979     -0.02386084      0.00370803
    2
 MD step:        3900 time   9.4336488733695010     
 H     -0.23664356     -0.20751406     -0.40037215     -0.02515856     -0.02204222     -0.00369256
 H     -0.26550916     -0.22518206      0.38624897     -0.02807139     -0.02382510      0.00219546
    2
 MD step:        3950 time   9.5545930896947500     
 H     -0.23969002     -0.21018219     -0.40071970     -0.02521968     -0.02207962     -0.00204454
 H     -0.26890056     -0.22806131      0.38641546     -0.02801028     -0.02378769      0.00054743
    2
 MD step:        4000 time   9.6755373060200007     
 H     -0.24274394     -0.21285488     -0.40086703     -0.02528156     -0.02211750     -0.00040850
 H     -0.27228449     -0.23093600      0.38638173     -0.02794840     -0.02374981     -0.00108861
    2
 MD step:        4050 time   9.7964815223452497     
 H     -0.24580531     -0.21553214     -0.40082391     -0.02534298     -0.02215509      0.00111710
 H     -0.27566098     -0.23380613      0.38615754     -0.02788698     -0.02371222     -0.00261420
    2
 MD step:        4100 time   9.9174257386705005     
 H     -0.24887418     -0.21821398     -0.40059274     -0.02540571     -0.02219349      0.00272123
 H     -0.27902997     -0.23667167      0.38574530     -0.02782424     -0.02367382     -0.00421834
    2
 MD step:        4150 time   10.038369954995749     
 H     -0.25195064     -0.22090048     -0.40016529     -0.02546822     -0.02223175      0.00433895
 H     -0.28239135     -0.23953256      0.38513679     -0.02776174     -0.02363556     -0.00583606
    2
 MD step:        4200 time   10.159314171321000     
 H     -0.25503456     -0.22359153     -0.39954899     -0.02552876     -0.02226880      0.00582408
 H     -0.28574530     -0.24238890      0.38433942     -0.02770120     -0.02359851     -0.00732119
    2
 MD step:        4250 time   10.280258387646251     
 H     -0.25812573     -0.22628703     -0.39875794     -0.02558866     -0.02230547      0.00726783
 H     -0.28909197     -0.24524078      0.38336730     -0.02764130     -0.02356184     -0.00876493
    2
 MD step:        4300 time   10.401202603971500     
 H     -0.26122410     -0.22898693     -0.39779088     -0.02564713     -0.02234126      0.00871646
 H     -0.29243147     -0.24808827      0.38221918     -0.02758282     -0.02352605     -0.01021356
    2
 MD step:        4350 time   10.522146820296751     
 H     -0.26432934     -0.23169104     -0.39665325     -0.02570231     -0.02237503      0.01006597
 H     -0.29576408     -0.25093155      0.38090048     -0.02752765     -0.02349228     -0.01156308
    2
 MD step:        4400 time   10.643091036622000     
 H     -0.26744108     -0.23439912     -0.39536231     -0.02575473     -0.02240712      0.01127375
 H     -0.29909020     -0.25377085      0.37942847     -0.02747523     -0.02346019     -0.01277085
    2
 MD step:        4450 time   10.764035252947250     
 H     -0.27055900     -0.23711100     -0.39392818     -0.02580422     -0.02243741      0.01242531
 H     -0.30241013     -0.25660636      0.37781328     -0.02742574     -0.02342990     -0.01392242
    2
 MD step:        4500 time   10.884979469272501     
 H     -0.27368262     -0.23982635     -0.39235995     -0.02584884     -0.02246472      0.01349056
 H     -0.30572436     -0.25943839      0.37606398     -0.02738111     -0.02340259     -0.01498767
    2
 MD step:        4550 time   11.005923685597750     
 H     -0.27681136     -0.24254484     -0.39067182     -0.02588903     -0.02248932      0.01439951
 H     -0.30903348     -0.26226729      0.37419478     -0.02734093     -0.02337799     -0.01589662
    2
 MD step:        4600 time   11.126867901923001     
 H     -0.27994470     -0.24526615     -0.38888216     -0.02592444     -0.02251099      0.01516419
 H     -0.31233800     -0.26509337      0.37222406     -0.02730552     -0.02335632     -0.01666130
    2
 MD step:        4650 time   11.247812118248250     
 H     -0.28308190     -0.24798982     -0.38700947     -0.02595312     -0.02252854      0.01579428
 H     -0.31563865     -0.26791709      0.37017030     -0.02727684     -0.02333877     -0.01729139
    2
 MD step:        4700 time   11.368756334573501     
 H     -0.28622223     -0.25071541     -0.38506592     -0.02597622     -0.02254268      0.01631632
 H     -0.31893617     -0.27073888      0.36804568     -0.02725374     -0.02332463     -0.01781342
    2
 MD step:        4750 time   11.489700550898750     
 H     -0.28936499     -0.25344247     -0.38307058     -0.02599260     -0.02255271      0.01663458
 H     -0.32223128     -0.27355920      0.36586928     -0.02723736     -0.02331460     -0.01813169
    2
 MD step:        4800 time   11.610644767224001     
 H     -0.29250918     -0.25617042     -0.38105207     -0.02600034     -0.02255745      0.01673006
 H     -0.32552494     -0.27637864      0.36366970     -0.02722961     -0.02330986     -0.01822717
    2
 MD step:        4850 time   11.731588983549251     
 H     -0.29565393     -0.25889871     -0.37902570     -0.02600174     -0.02255831      0.01675650
 H     -0.32881805     -0.27919774      0.36146227     -0.02722822     -0.02330901     -0.01825361
    2
 MD step:        4900 time   11.852533199874500     
 H     -0.29879836     -0.26162681     -0.37700700     -0.02599473     -0.02255402      0.01657646
 H     -0.33211146     -0.28201702      0.35926250     -0.02723523     -0.02331330     -0.01807357
    2
 MD step:        4950 time   11.973477416199751     
 H     -0.30194134     -0.26435402     -0.37502844     -0.02597803     -0.02254380      0.01611750
 H     -0.33540634     -0.28483720      0.35710287     -0.02725192     -0.02332352     -0.01761460
    2
 MD step:        5000 time   12.094421632525000     
 H     -0.30508189     -0.26707973     -0.37311081     -0.02595428     -0.02252926      0.01557087
 H     -0.33870365     -0.28765887      0.35500418     -0.02727568     -0.02333805     -0.01706798
    2
 MD step:        5050 time   12.215365848850251     
 H     -0.30821900     -0.26980335     -0.37126911     -0.02592102     -0.02250890      0.01484700
 H     -0.34200440     -0.29048265      0.35298141     -0.02730894     -0.02335841     -0.01634411
    2
 MD step:        5100 time   12.336310065175500     
 H     -0.31135151     -0.27252415     -0.36953004     -0.02587872     -0.02248301      0.01388249
 H     -0.34530974     -0.29330923      0.35106127     -0.02735124     -0.02338430     -0.01537960
    2
 MD step:        5150 time   12.457254281500751     
 H     -0.31447846     -0.27524154     -0.36791671     -0.02582852     -0.02245228      0.01276097
 H     -0.34862065     -0.29613922      0.34926687     -0.02740144     -0.02341503     -0.01425808
    2
 MD step:        5200 time   12.578198497826001     
 H     -0.31759875     -0.27795487     -0.36644887     -0.02576921     -0.02241598      0.01150022
 H     -0.35193821     -0.29897329      0.34761797     -0.02746075     -0.02345133     -0.01299733
    2
 MD step:        5250 time   12.699142714151250     
 H     -0.32071146     -0.28066354     -0.36514023     -0.02570309     -0.02237551      0.01011513
 H     -0.35526336     -0.30181200      0.34612826     -0.02752687     -0.02349180     -0.01161223
    2
 MD step:        5300 time   12.820086930476501     
 H     -0.32381569     -0.28336703     -0.36401090     -0.02562862     -0.02232993      0.00851534
 H     -0.35859698     -0.30465589      0.34481787     -0.02760134     -0.02353738     -0.01001245
    2
 MD step:        5350 time   12.941031146801750     
 H     -0.32691048     -0.28606474     -0.36308332     -0.02554793     -0.02228054      0.00683268
 H     -0.36194005     -0.30750557      0.34370922     -0.02768203     -0.02358677     -0.00832979
    2
 MD step:        5400 time   13.061975363127001     
 H     -0.32999524     -0.28875632     -0.36235987     -0.02546244     -0.02222821      0.00511468
 H     -0.36529314     -0.31036138      0.34280470     -0.02776751     -0.02363910     -0.00661178
    2
 MD step:        5450 time   13.182919579452250     
 H     -0.33306929     -0.29144133     -0.36185296     -0.02537082     -0.02217214      0.00323924
 H     -0.36865695     -0.31322375      0.34211673     -0.02785913     -0.02369517     -0.00473634
    2
 MD step:        5500 time   13.303863795777501     
 H     -0.33613209     -0.29411946     -0.36157661     -0.02527702     -0.02211472      0.00133338
 H     -0.37203200     -0.31609301      0.34165931     -0.02795293     -0.02375259     -0.00283049
    2
 MD step:        5550 time   13.424808012102751     
 H     -0.33918336     -0.29679053     -0.36153189     -0.02518005     -0.02205537     -0.00058757
 H     -0.37541859     -0.31896932      0.34143352     -0.02804990     -0.02381194     -0.00090953
    2
 MD step:        5600 time   13.545752228428000     
 H     -0.34222284     -0.29945439     -0.36171756     -0.02508265     -0.02199575     -0.00248309
 H     -0.37881696     -0.32185285      0.34143813     -0.02814731     -0.02387156      0.00098599
    2
 MD step:        5650 time   13.666696444753251     
 H     -0.34525059     -0.30211107     -0.36213255     -0.02498567     -0.02193639     -0.00439463
 H     -0.38222706     -0.32474355      0.34167206     -0.02824428     -0.02393092      0.00289752
    2
 MD step:        5700 time   13.787640661078500     
 H     -0.34826659     -0.30476056     -0.36278043     -0.02488936     -0.02187744     -0.00628452
 H     -0.38564892     -0.32764145      0.34213887     -0.02834060     -0.02398987      0.00478742
    2
 MD step:        5750 time   13.908584877403751     
 H     -0.35127125     -0.30740310     -0.36364554     -0.02479779     -0.02182140     -0.00800559
 H     -0.38908212     -0.33054630      0.34282291     -0.02843216     -0.02404592      0.00650849
    2
 MD step:        5800 time   14.029529093729000     
 H     -0.35426501     -0.31003897     -0.36471542     -0.02470911     -0.02176712     -0.00969313