    2
 MD step:           0 time   0.0000000000000000     
 H      0.00000000      0.00000000     -0.37000000     -0.02935928      0.00122589      0.01314156
 H      0.00000000      0.00000000      0.37000000      0.00943210     -0.00536542      0.00647502
    2
 MD step:          50 time  0.12094421632525000     
 H     -0.00355237      0.00014827     -0.36842330     -0.02940886      0.00122602      0.01288476
 H      0.00114230     -0.00064892      0.37079582      0.00948168     -0.00536555      0.00673183
    2
 MD step:         100 time  0.24188843265050000     
 H     -0.00711161      0.00029658     -0.36688613     -0.02940279      0.00122657      0.01251968
 H      0.00229146     -0.00129788      0.37163115      0.00947561     -0.00536609      0.00709691
    2
 MD step:         150 time  0.36283264897575002     
 H     -0.01066453      0.00044497     -0.36539491     -0.02937087      0.00122728      0.01218797
 H      0.00343430     -0.00194692      0.37251245      0.00944370     -0.00536681      0.00742862
    2
 MD step:         200 time  0.48377686530100000     
 H     -0.01421903      0.00059346     -0.36393786     -0.02943239      0.00122836      0.01187742
 H      0.00457872     -0.00259607      0.37342791      0.00950521     -0.00536788      0.00773917
    2
 MD step:         250 time  0.60472108162625005     
 H     -0.01778001      0.00074213     -0.36252575     -0.02941657      0.00123029      0.01143869
 H      0.00572962     -0.00324539      0.37438831      0.00948940     -0.00536981      0.00817789
    2
 MD step:         300 time  0.72566529795150003     
 H     -0.02133664      0.00089105     -0.36116979     -0.02940972      0.00123223      0.01104651
 H      0.00687618     -0.00389496      0.37540487      0.00948255     -0.00537176      0.00857007
    2
 MD step:         350 time  0.84660951427675002     
 H     -0.02489626      0.00104020     -0.35985186     -0.02947464      0.00123438      0.01073180
 H      0.00802572     -0.00454477      0.37645945      0.00954747     -0.00537390      0.00888479
    2
 MD step:         400 time  0.96755373060200001     
 H     -0.02846144      0.00118969     -0.35858038     -0.02945936      0.00123778      0.01024777
 H      0.00918083     -0.00519490      0.37756048      0.00953219     -0.00537731      0.00936882
    2
 MD step:         450 time   1.0884979469272500     
 H     -0.03202531      0.00133959     -0.35736847     -0.02947392      0.00124080      0.00986311
 H      0.01033462     -0.00584546      0.37872108      0.00954674     -0.00538032      0.00975347
    2
 MD step:         500 time   1.2094421632525001     
 H     -0.03559257      0.00148982     -0.35619203     -0.02953152      0.00124369      0.00958708
 H      0.01149180     -0.00649634      0.37991716      0.00960434     -0.00538322      0.01002951
    2
 MD step:         550 time   1.3303863795777500     
 H     -0.03916428      0.00164049     -0.35505821     -0.02952857      0.00124804      0.00911328
 H      0.01265343     -0.00714766      0.38115585      0.00960139     -0.00538757      0.01050331
    2
 MD step:         600 time   1.4513305959030001     
 H     -0.04273796      0.00179168     -0.35398010     -0.02955310      0.00125160      0.00878573
 H      0.01381704     -0.00779950      0.38245026      0.00962592     -0.00539113      0.01083086
    2
 MD step:         650 time   1.5722748122282502     
 H     -0.04631398      0.00194322     -0.35292944     -0.02959250      0.00125441      0.00859047
 H      0.01498298     -0.00845169      0.38377211      0.00966533     -0.00539393      0.01102612
    2
 MD step:         700 time   1.6932190285535000     
 H     -0.04989344      0.00209519     -0.35191309     -0.02961144      0.00125885      0.00817568
 H      0.01615237     -0.00910431      0.38512827      0.00968426     -0.00539838      0.01144091
    2
 MD step:         750 time   1.8141632448787501     
 H     -0.05347751      0.00224766     -0.35094161     -0.02962963      0.00126194      0.00795183
 H      0.01732635     -0.00975744      0.38652930      0.00970245     -0.00540147      0.01166475
    2
 MD step:         800 time   1.9351074612040000     
 H     -0.05706133      0.00240038     -0.34998557     -0.02964287      0.00126353      0.00786606
 H      0.01850010     -0.01041081      0.38794577      0.00971570     -0.00540305      0.01175052
    2
 MD step:         850 time   2.0560516775292501     
 H     -0.06064768      0.00255338     -0.34905016     -0.02968490      0.00126671      0.00757144
 H      0.01967637     -0.01106446      0.38938288      0.00975772     -0.00540624      0.01204515
    2
 MD step:         900 time   2.1769958938545000     
 H     -0.06423991      0.00270672     -0.34814380     -0.02968224      0.00126833      0.00746671
 H      0.02085853     -0.01171845      0.39084903      0.00975507     -0.00540786      0.01214988
    2
 MD step:         950 time   2.2979401101797499     
 H     -0.06782824      0.00286007     -0.34723905     -0.02966550      0.00126741      0.00750928
 H      0.02203678     -0.01237246      0.39231680      0.00973832     -0.00540694      0.01210731
    2
 MD step:        1000 time   2.4188843265050002     
 H     -0.07141804      0.00301338     -0.34633756     -0.02972261      0.00126793      0.00738001
 H      0.02321651     -0.01302642      0.39378781      0.00979543     -0.00540745      0.01223657
    2
 MD step:        1050 time   2.5398285428302501     
 H     -0.07501320      0.00316671     -0.34544534     -0.02968882      0.00126690      0.00740423
 H      0.02440159     -0.01368040      0.39526811      0.00976164     -0.00540643      0.01221235
    2
 MD step:        1100 time   2.6607727591554999     
 H     -0.07860052      0.00331969     -0.34454108     -0.02964311      0.00126239      0.00757740
 H      0.02557882     -0.01433403      0.39673636      0.00971593     -0.00540192      0.01203919
    2
 MD step:        1150 time   2.7817169754807503     
 H     -0.08218748      0.00347213     -0.34361948     -0.02969682      0.00125873      0.00765057
 H      0.02675571     -0.01498712      0.39818727      0.00976965     -0.00539826      0.01196601
    2
 MD step:        1200 time   2.9026611918060001     
 H     -0.08577752      0.00362414     -0.34268633     -0.02963152      0.00125432      0.00778867
 H      0.02793568     -0.01563978      0.39962664      0.00970435     -0.00539385      0.01182792
    2
 MD step:        1250 time   3.0236054081312500     
 H     -0.08935653      0.00377535     -0.34172925     -0.02956141      0.00124548      0.00808307
 H      0.02910461     -0.01629165      0.40104207      0.00963423     -0.00538501      0.01153352
    2
 MD step:        1300 time   3.1445496244565003     
 H     -0.09293213      0.00392543     -0.34073404     -0.02958719      0.00123649      0.00836814
 H      0.03027013     -0.01694238      0.40241937      0.00966002     -0.00537602      0.01124845
    2
 MD step:        1350 time   3.2654938407817502     
 H     -0.09650687      0.00407448     -0.33970588     -0.02949613      0.00122785      0.00861545
 H      0.03143479     -0.01759208      0.40376372      0.00956895     -0.00536737      0.01100113
    2
 MD step:        1400 time   3.3864380571070001     
 H     -0.10006898      0.00422225     -0.33864425     -0.02941023      0.00121467      0.00900352
 H      0.03258683     -0.01824050      0.40507460      0.00948305     -0.00535420      0.01061307
    2
 MD step:        1450 time   3.5073822734322500     
 H     -0.10362324      0.00436824     -0.33752606     -0.02938241      0.00119966      0.00948420
 H      0.03373101     -0.01888714      0.40632893      0.00945523     -0.00533919      0.01013239
    2
 MD step:        1500 time   3.6283264897575003     
 H     -0.10717148      0.00451253     -0.33635557     -0.02927667      0.00118641      0.00982912
 H      0.03486917     -0.01953208      0.40753095      0.00934949     -0.00532594      0.00978746
    2
 MD step:        1550 time   3.7492707060827501     
 H     -0.11070741      0.00465506     -0.33514367     -0.02918453      0.00116929      0.01028385
 H      0.03599502     -0.02017527      0.40869157      0.00925736     -0.00530882      0.00933274
    2
 MD step:        1600 time   3.8702149224080000     
 H     -0.11423028      0.00479523     -0.33386243     -0.02908669      0.00114853      0.01090627
 H      0.03710782     -0.02081609      0.40978283      0.00915951     -0.00528806      0.00871032
    2
 MD step:        1650 time   3.9911591387332503     
 H     -0.11774115      0.00493298     -0.33251246     -0.02897172      0.00113006      0.01135687
 H      0.03820861     -0.02145450      0.41080538      0.00904455     -0.00526958      0.00825972
    2
 MD step:        1700 time   4.1121033550585002     
 H     -0.12124125      0.00506851     -0.33111331     -0.02888367      0.00110997      0.01184662
 H      0.03929864     -0.02209068      0.41177874      0.00895649     -0.00524950      0.00776997
    2
 MD step:        1750 time   4.2330475713837501     
 H     -0.12472364      0.00520125     -0.32963963     -0.02871653      0.00108468      0.01253256
 H      0.04037095     -0.02272407      0.41267757      0.00878935     -0.00522420      0.00708403
    2
 MD step:        1800 time   4.3539917877090000     
 H     -0.12818832      0.00533095     -0.32808691     -0.02859331      0.00106118      0.01307966
 H      0.04142555     -0.02335442      0.41349737      0.00866613     -0.00520071      0.00653693
    2
 MD step:        1850 time   4.4749360040342498     
 H     -0.13164359      0.00545798     -0.32647645     -0.02851153      0.00103867      0.01359630
 H      0.04247075     -0.02398210      0.41425943      0.00858435     -0.00517819      0.00602029
    2
 MD step:        1900 time   4.5958802203594997     
 H     -0.13507824      0.00558197     -0.32479311     -0.02829835      0.00101107      0.01425488
 H      0.04349531     -0.02460674      0.41494860      0.00837117     -0.00515059      0.00536170
    2
 MD step:        1950 time   4.7168244366847505     
 H     -0.13849103      0.00570250     -0.32302815     -0.02816133      0.00098319      0.01487999
 H      0.04449803     -0.02522793      0.41555614      0.00823415     -0.00512272      0.00473659
    2
 MD step:        2000 time   4.8377686530100004     
 H     -0.14189427      0.00581994     -0.32119707     -0.02808186      0.00095904      0.01541224
 H      0.04549120     -0.02584602      0.41609758      0.00815469     -0.00509857      0.00420435
    2
 MD step:        2050 time   4.9587128693352502     
 H     -0.14527646      0.00593432     -0.31930010     -0.02786072      0.00093158      0.01597320
 H      0.04646330     -0.02646105      0.41657312      0.00793354     -0.00507111      0.00364339
    2
 MD step:        2100 time   5.0796570856605001     
 H     -0.14863563      0.00604513     -0.31732730     -0.02770933      0.00090144      0.01662219
 H      0.04741240     -0.02707251      0.41697284      0.00778215     -0.00504097      0.00299439
    2
 MD step:        2150 time   5.2006013019857500     
 H     -0.15198323      0.00615257     -0.31528324     -0.02762020      0.00087608      0.01716444
 H      0.04834992     -0.02768060      0.41730129      0.00769302     -0.00501561      0.00245215
    2
 MD step:        2200 time   5.3215455183109999     
 H     -0.15531137      0.00625705     -0.31318219     -0.02743158      0.00085104      0.01758995
 H      0.04926798     -0.02828573      0.41757275      0.00750440     -0.00499057      0.00202664
    2
 MD step:        2250 time   5.4424897346362506     
 H     -0.15861891      0.00635818     -0.31101793     -0.02727165      0.00082143      0.01819782
 H      0.05016545     -0.02888751      0.41778100      0.00734447     -0.00496095      0.00141877
    2
 MD step:        2300 time   5.5634339509615005     
 H     -0.16191191      0.00645592     -0.30878366     -0.02716738      0.00079626      0.01871618
 H      0.05104838     -0.02948591      0.41791925      0.00724021     -0.00493578      0.00090040
    2
 MD step:        2350 time   5.6843781672867504     
 H     -0.16518877      0.00655097     -0.30650288     -0.02703998      0.00077526      0.01900403
 H      0.05191516     -0.03008161      0.41801098      0.00711280     -0.00491479      0.00061256
    2
 MD step:        2400 time   5.8053223836120003     
 H     -0.16845020      0.00664319     -0.30417491     -0.02688462      0.00074936      0.01950601
 H      0.05276651     -0.03067449      0.41805552      0.00695744     -0.00488888      0.00011057
    2
 MD step:        2450 time   5.9262665999372501     
 H     -0.17169502      0.00673234     -0.30178632     -0.02676960      0.00072614      0.01995830
 H      0.05360125     -0.03126429      0.41803944      0.00684243     -0.00486567     -0.00034171
    2
 MD step:        2500 time   6.0472108162625000     
 H     -0.17492797      0.00681919     -0.29936221     -0.02671560      0.00071037      0.02012403
 H      0.05442412     -0.03185179      0.41798785      0.00678843     -0.00484990     -0.00050744
    2
 MD step:        2550 time   6.1681550325877499     
 H     -0.17815220      0.00690398     -0.29690831     -0.02658037      0.00069102      0.02047142
 H      0.05523828     -0.03243723      0.41790647      0.00665319     -0.00483054     -0.00085483
    2
 MD step:        2600 time   6.2890992489130007     
 H     -0.18136010      0.00698636     -0.29441037     -0.02647320      0.00067224      0.02080865
 H      0.05603610     -0.03302026      0.41778104      0.00654603     -0.00481177     -0.00119207
    2
 MD step:        2650 time   6.4100434652382505     
 H     -0.18456152      0.00706703     -0.29188963     -0.02649080      0.00066268      0.02086959
 H      0.05682745     -0.03360159      0.41763280      0.00656363     -0.00480220     -0.00125301
    2
 MD step:        2700 time   6.5309876815635004     
 H     -0.18776087      0.00714657     -0.28935575     -0.02638900      0.00065174      0.02103795
 H      0.05761672     -0.03418177      0.41747144      0.00646182     -0.00479127     -0.00142136
    2
 MD step:        2750 time   6.6519318978887503     
 H     -0.19094725      0.00722462     -0.28679901     -0.02631275      0.00063957      0.02123003
 H      0.05839302     -0.03476048      0.41728721      0.00638557     -0.00477910     -0.00161344
    2
 MD step:        2800 time   6.7728761142140002     
 H     -0.19413317      0.00730174     -0.28423277     -0.02639172      0.00063703      0.02119837
 H      0.05916886     -0.03533825      0.41709348      0.00646454     -0.00477656     -0.00158178
    2
 MD step:        2850 time   6.8938203305392500     
 H     -0.19732312      0.00737875     -0.28166985     -0.02633657      0.00063579      0.02117699
 H      0.05994873     -0.03591591      0.41690308      0.00640940     -0.00477532     -0.00156040
    2
 MD step:        2900 time   7.0147645468644999     
 H     -0.20050620      0.00745539     -0.27910632     -0.02631029      0.00063173      0.02121720
 H      0.06072175     -0.03649320      0.41671207      0.00638312     -0.00477125     -0.00160061
    2
 MD step:        2950 time   7.1357087631897507     
 H     -0.20369514      0.00753201     -0.27654681     -0.02643675      0.00063670      0.02110099
 H      0.06150061     -0.03707047      0.41652506      0.00650957     -0.00477622     -0.00148441
    2
 MD step:        3000 time   7.2566529795150005     
 H     -0.20689323      0.00760955     -0.27400574     -0.02643800      0.00064519      0.02090193
 H      0.06228862     -0.03764867      0.41635651      0.00651083     -0.00478472     -0.00128534
    2
 MD step:        3050 time   7.3775971958402504     
 H     -0.21009237      0.00768786     -0.27148438     -0.02646915      0.00064965      0.02080709
 H      0.06307768     -0.03822763      0.41620766      0.00654198     -0.00478918     -0.00119050
    2
 MD step:        3100 time   7.4985414121655003     
 H     -0.21330297      0.00776708     -0.26897882     -0.02662802      0.00066197      0.02061554
 H      0.06387820     -0.03880750      0.41607461      0.00670085     -0.00480150     -0.00099896
    2
 MD step:        3150 time   7.6194856284907502     
 H     -0.21652732      0.00784823     -0.26650575     -0.02669452      0.00067959      0.02026279
 H      0.06469247     -0.03938930      0.41597406      0.00676734     -0.00481911     -0.00064620
    2
 MD step:        3200 time   7.7404298448160000     
 H     -0.21976090      0.00793118     -0.26406805     -0.02677619      0.00069171      0.02006756
 H      0.06551598     -0.03997290      0.41590887      0.00684902     -0.00483123     -0.00045098
    2
 MD step:        3250 time   7.8613740611412499     
 H     -0.22301009      0.00801586     -0.26165520     -0.02695164      0.00071020      0.01981692
 H      0.06635509     -0.04055824      0.41586853      0.00702447     -0.00484973     -0.00020033
    2
 MD step:        3300 time   7.9823182774665007     
 H     -0.22627689      0.00810327     -0.25928573     -0.02708425      0.00073501      0.01935638
 H      0.06721182     -0.04114630      0.41587157      0.00715707     -0.00487454      0.00026021
    2
 MD step:        3350 time   8.1032624937917497     
 H     -0.22955991      0.00819329     -0.25696129     -0.02719866      0.00075289      0.01910173
 H      0.06808475     -0.04173696      0.41591965      0.00727148     -0.00489242      0.00051486
    2
 MD step:        3400 time   8.2242067101170004     
 H     -0.23286048      0.00828561     -0.25466686     -0.02737595      0.00077550      0.01881421
 H      0.06897525     -0.04232994      0.41599772      0.00744877     -0.00491503      0.00080238
    2
 MD step:        3450 time   8.3451509264422494     
 H     -0.23618195      0.00838120     -0.25242277     -0.02756669      0.00080479      0.01830290
 H      0.06988664     -0.04292618      0.41612616      0.00763951     -0.00494432      0.00131369
    2
 MD step:        3500 time   8.4660951427675002     
 H     -0.23952386      0.00847983     -0.25022649     -0.02768856      0.00082548      0.01803240
 H      0.07081848     -0.04352547      0.41630238      0.00776138     -0.00496501      0.00158419
    2
 MD step:        3550 time   8.5870393590927510     
 H     -0.24288276      0.00858099     -0.24806104     -0.02785267      0.00084904      0.01774071
 H      0.07176730     -0.04412728      0.41650945      0.00792549     -0.00498857      0.00187588
    2
 MD step:        3600 time   8.7079835754179999     
 H     -0.24626451      0.00868554     -0.24594692     -0.02808122      0.00087921      0.01724341
 H      0.07273898     -0.04473247      0.41676784      0.00815404     -0.00501873      0.00237318
    2
 MD step:        3650 time   8.8289277917432507     
 H     -0.24966753      0.00879315     -0.24387735     -0.02818463      0.00089930      0.01699458
 H      0.07373192     -0.04534074      0.41707078      0.00825745     -0.00503883      0.00262200
    2
 MD step:        3700 time   8.9498720080684997     
 H     -0.25308439      0.00890308     -0.24183503     -0.02832331      0.00092031      0.01673392
 H      0.07473870     -0.04595132      0.41740098      0.00839613     -0.00505984      0.00288266
    2
 MD step:        3750 time   9.0708162243937505     
 H     -0.25652434      0.00901606     -0.23983888     -0.02855929      0.00094736      0.01631178
 H      0.07576857     -0.04656496      0.41777733      0.00863212     -0.00508689      0.00330481
    2
 MD step:        3800 time   9.1917604407189994     
 H     -0.25998253      0.00913168     -0.23787878     -0.02862155      0.00096330      0.01611474
 H      0.07681669     -0.04718123      0.41818975      0.00869437     -0.00510283      0.00350185
    2
 MD step:        3850 time   9.3127046570442502     
 H     -0.26344927      0.00924896     -0.23593843     -0.02872108      0.00097778      0.01592703
 H      0.07787335     -0.04779916      0.41862192      0.00879390     -0.00511730      0.00368956
    2
 MD step:        3900 time   9.4336488733695010     
 H     -0.26693661      0.00936848     -0.23403254     -0.02893051      0.00099799      0.01562619
 H      0.07895061     -0.04841933      0.41908853      0.00900334     -0.00513752      0.00399040
    2
 MD step:        3950 time   9.5545930896947500     
 H     -0.27043619      0.00948981     -0.23215128     -0.02893707      0.00100668      0.01549950
 H      0.08004011     -0.04904131      0.41957979      0.00900990     -0.00514621      0.00411709
    2
 MD step:        4000 time   9.6755373060200007     
 H     -0.27393743      0.00961174     -0.23027913     -0.02898445      0.00101125      0.01542082
 H      0.08113128     -0.04966390      0.42008016      0.00905727     -0.00515078      0.00419576
    2
 MD step:        4050 time   9.7964815223452497     
 H     -0.27745367      0.00973468     -0.22842463     -0.02913327      0.00102113      0.01527301
 H      0.08223744     -0.05028748      0.42059816      0.00920610     -0.00516066      0.00434358
    2
 MD step:        4100 time   9.9174257386705005     
 H     -0.28097398      0.00985825     -0.22658158     -0.02908032      0.00102033      0.01522435
 H      0.08334768     -0.05091171      0.42112763      0.00915314     -0.00515986      0.00439224
    2
 MD step:        4150 time   10.038369954995749     
 H     -0.28448827      0.00998109     -0.22473512     -0.02905881      0.00101212      0.01528510
 H      0.08445188     -0.05153520      0.42165368      0.00913163     -0.00515164      0.00433149
    2
 MD step:        4200 time   10.159314171321000     
 H     -0.28800849      0.01010332     -0.22288598     -0.02912133      0.00100925      0.01530104
 H      0.08556203     -0.05215808      0.42217706      0.00919416     -0.00514878      0.00431555
    2
 MD step:        4250 time   10.280258387646251     
 H     -0.29152405      0.01022483     -0.22103514     -0.02901614      0.00099782      0.01533009
 H      0.08666751     -0.05278024      0.42269872      0.00908897     -0.00513735      0.00428650
    2
 MD step:        4300 time   10.401202603971500     
 H     -0.29502587      0.01034413     -0.21916786     -0.02891113      0.00097552      0.01553992
 H      0.08775925     -0.05340019      0.42320396      0.00898395     -0.00511504      0.00407667
    2
 MD step:        4350 time   10.522146820296751     
 H     -0.29852154      0.01046100     -0.21727675     -0.02886806      0.00095792      0.01572034
 H      0.08884485     -0.05401772      0.42368536      0.00894088     -0.00509745      0.00389625
    2
 MD step:        4400 time   10.643091036622000     
 H     -0.30200404      0.01057565     -0.21537078     -0.02872588      0.00093580      0.01582412
 H      0.08991728     -0.05463301      0.42415190      0.00879870     -0.00507532      0.00379247
    2
 MD step:        4450 time   10.764035252947250     
 H     -0.30546598      0.01068667     -0.21343650     -0.02852807      0.00089968      0.01617007
 H      0.09096914     -0.05524469      0.42459013      0.00860090     -0.00503921      0.00344652
    2
 MD step:        4500 time   10.884979469272501     
 H     -0.30890775      0.01079341     -0.21145921     -0.02837204      0.00086673      0.01649993
 H      0.09200083     -0.05585208      0.42498536      0.00844486     -0.00500626      0.00311665
    2
 MD step:        4550 time   11.005923685597750     
 H     -0.31232874      0.01089638     -0.20945423     -0.02820784      0.00083441      0.01668042
 H      0.09301174     -0.05645570      0.42535290      0.00828066     -0.00497394      0.00293617
    2
 MD step:        4600 time   11.126867901923001     
 H     -0.31572378      0.01099450     -0.20741108     -0.02792210      0.00078676      0.01712389
 H      0.09399670     -0.05705448      0.42568226      0.00799492     -0.00492628      0.00249269
    2
 MD step:        4650 time   11.247812118248250     
 H     -0.31908476      0.01108667     -0.20531077     -0.02765505      0.00073883      0.01757883
 H      0.09494761     -0.05764730      0.42595446      0.00772787     -0.00487836      0.00203776
    2
 MD step:        4700 time   11.368756334573501     
 H     -0.32241775      0.01117354     -0.20316967     -0.02747467      0.00069692      0.01784537
 H      0.09587053     -0.05823482      0.42618588      0.00754749     -0.00483644      0.00177122
    2
 MD step:        4750 time   11.489700550898750     
 H     -0.32572115      0.01125462     -0.20098302     -0.02712292      0.00064150      0.01833277
 H      0.09676384     -0.05881655      0.42637174      0.00719575     -0.00478103      0.00128382
    2
 MD step:        4800 time   11.610644767224001     
 H     -0.32897942      0.01132850     -0.19873228     -0.02676366      0.00058111      0.01887046
 H      0.09761203     -0.05939109      0.42649351      0.00683648     -0.00472064      0.00074613
    2
 MD step:        4850 time   11.731588983549251     
 H     -0.33220278      0.01139567     -0.19642854     -0.02655840      0.00053009      0.01923459
 H      0.09842532     -0.05995891      0.42656228      0.00663122     -0.00466962      0.00038199
    2
 MD step:        4900 time   11.852533199874500     
 H     -0.33539386      0.01145637     -0.19407350     -0.02617424      0.00047104      0.01971605
 H      0.09920633     -0.06052025      0.42657975      0.00624706     -0.00461057     -0.00009946
    2
 MD step:        4950 time   11.973477416199751     
 H     -0.33853414      0.01150924     -0.19165526     -0.02575889      0.00040273      0.02028195
 H      0.09993653     -0.06107377      0.42653403      0.00583171     -0.00454226     -0.00066536
    2
 MD step:        5000 time   12.094421632525000     
 H     -0.34163307      0.01155428     -0.18917445     -0.02551065      0.00034355      0.02074275
 H      0.10062538     -0.06161947      0.42642573      0.00558347     -0.00448308     -0.00112616
    2
 MD step:        5050 time   12.215365848850251     
 H     -0.34469731      0.01159236     -0.18663809     -0.02512986      0.00028452      0.02118470
 H      0.10127955     -0.06215821      0.42626188      0.00520268     -0.00442404     -0.00156811
    2
 MD step:        5100 time   12.336310065175500     
 H     -0.34771161      0.01162265     -0.18404555     -0.02470890      0.00021446      0.02172127
 H      0.10188377     -0.06268915      0.42604185      0.00478172     -0.00435399     -0.00210468
    2
 MD step:        5150 time   12.457254281500751     
 H     -0.35068012      0.01164456     -0.18138632     -0.02440551      0.00014961      0.02225022
 H      0.10244220     -0.06321170      0.42575513      0.00447833     -0.00428914     -0.00263363
    2
 MD step:        5200 time   12.578198497826001     
 H     -0.35361124      0.01165922     -0.17866909     -0.02405263      0.00009274      0.02264315
 H      0.10296324     -0.06372702      0.42541042      0.00412545     -0.00423227     -0.00302656
    2
 MD step:        5250 time   12.699142714151250     
 H     -0.35649898      0.01166665     -0.17590563     -0.02367796      0.00002739      0.02310546
 H      0.10344091     -0.06423510      0.42501948      0.00375079     -0.00416692     -0.00348887
    2
 MD step:        5300 time   12.820086930476501     
 H     -0.35934008      0.01166587     -0.17307835     -0.02332744     -0.00003867      0.02364595
 H      0.10387193     -0.06473497      0.42456470      0.00340027     -0.00410086     -0.00402936
    2
 MD step:        5350 time   12.941031146801750     
 H     -0.36214190      0.01165788     -0.17019424     -0.02301809     -0.00009160      0.02398883
 H      0.10426368     -0.06522763      0.42405311      0.00309091     -0.00404792     -0.00437224
    2
 MD step:        5400 time   13.061975363127001     
 H     -0.36491033      0.01164360     -0.16727385     -0.02272604     -0.00014722      0.02435583
 H      0.10462203     -0.06571400      0.42350523      0.00279886     -0.00399231     -0.00473925
    2
 MD step:        5450 time   13.182919579452250     
 H     -0.36763578      0.01162203     -0.16429921     -0.02236201     -0.00020847      0.02483682
 H      0.10493740     -0.06619309      0.42290310      0.00243484     -0.00393106     -0.00522023
    2
 MD step:        5500 time   13.303863795777501     
 H     -0.37032261      0.01159376     -0.16127378     -0.02210518     -0.00025573      0.02512921
 H      0.10521416     -0.06666547      0.42225018      0.00217800     -0.00388380     -0.00551263
    2
 MD step:        5550 time   13.424808012102751     
 H     -0.37298704      0.01156037     -0.15822070     -0.02191160     -0.00029823      0.02539655
 H      0.10546850     -0.06713273      0.42156962      0.00198442     -0.00384130     -0.00577997
    2
 MD step:        5600 time   13.545752228428000     
 H     -0.37561642      0.01152125     -0.15512785     -0.02158303     -0.00034864      0.02575642
 H      0.10568781     -0.06759426      0.42084929      0.00165586     -0.00379089     -0.00613984
    2
 MD step:        5650 time   13.666696444753251     
 H     -0.37821210      0.01147649     -0.15199528     -0.02139068     -0.00038744      0.02598820
 H      0.10587341     -0.06805015      0.42008922      0.00146350     -0.00375209     -0.00637161
    2
 MD step:        5700 time   13.787640661078500     
 H     -0.38079593      0.01142798     -0.14884279     -0.02129285     -0.00041520      0.02615964
 H      0.10604716     -0.06850230      0.41930925      0.00136567     -0.00372433     -0.00654305
    2
 MD step:        5750 time   13.908584877403751     
 H     -0.38335584      0.01137571     -0.14566762     -0.02104976     -0.00044991      0.02636122
 H      0.10619700     -0.06895068      0.41850659      0.00112259     -0.00368962     -0.00674463
    2
 MD step:        5800 time   14.029529093729000     
 H     -0.38589142      0.01131938     -0.14246713     -0.02093330     -0.00047734      0.02652042