    2
 MD step:           0 time   0.0000000000000000     
 H      0.00000000      0.00000000     -0.37000000      0.00341532      0.00196797     -0.02815095
 H      0.00000000      0.00000000      0.37000000     -0.01444155      0.02734116     -0.05110370
    2
 MD step:          50 time  0.12094421632525000     
 H      0.00041253      0.00023746     -0.37341481      0.00340175      0.00195363     -0.02834190
 H     -0.00174609      0.00330731      0.36382942     -0.01442798      0.02735550     -0.05091275
    2
 MD step:         100 time  0.24188843265050000     
 H      0.00082317      0.00047275     -0.37686387      0.00337526      0.00192306     -0.02873057
 H     -0.00349029      0.00661679      0.35769309     -0.01440150      0.02738607     -0.05052408
    2
 MD step:         150 time  0.36283264897575002     
 H      0.00123091      0.00070428     -0.38037420      0.00336168      0.00189874     -0.02935871
 H     -0.00523158      0.00993003      0.35161803     -0.01438791      0.02741040     -0.04989593
    2
 MD step:         200 time  0.48377686530100000     
 H      0.00163688      0.00093225     -0.38397089      0.00336923      0.00188721     -0.03015136
 H     -0.00697112      0.01324683      0.34562932     -0.01439546      0.02742193     -0.04910329
    2
 MD step:         250 time  0.60472108162625005     
 H      0.00204425      0.00115874     -0.38767212      0.00339260      0.00188227     -0.03105578
 H     -0.00871205      0.01656511      0.33974517     -0.01441883      0.02742686     -0.04819887
    2
 MD step:         300 time  0.72566529795150003     
 H      0.00245612      0.00138591     -0.39148299      0.00342641      0.00188166     -0.03194658
 H     -0.01045747      0.01988271      0.33397064     -0.01445264      0.02742747     -0.04730807
    2
 MD step:         350 time  0.84660951427675002     
 H      0.00287326      0.00161382     -0.39540031      0.00346410      0.00187861     -0.03282349
 H     -0.01220817      0.02319957      0.32830257     -0.01449033      0.02743053     -0.04643116
    2
 MD step:         400 time  0.96755373060200001     
 H      0.00329393      0.00183991     -0.39942315      0.00348860      0.00185464     -0.03371200
 H     -0.01396240      0.02651825      0.32274002     -0.01451483      0.02745449     -0.04554265
    2
 MD step:         450 time   1.0884979469272500     
 H      0.00371577      0.00206057     -0.40355970      0.00348994      0.00179447     -0.03470793
 H     -0.01571780      0.02984237      0.31729117     -0.01451618      0.02751467     -0.04454671
    2
 MD step:         500 time   1.2094421632525001     
 H      0.00413800      0.00227315     -0.40782663      0.00348665      0.00171199     -0.03587328
 H     -0.01747359      0.03317455      0.31197271     -0.01451288      0.02759714     -0.04338137
    2
 MD step:         550 time   1.3303863795777500     
 H      0.00456222      0.00247703     -0.41224340      0.00351230      0.00164155     -0.03716851
 H     -0.01923137      0.03651544      0.30680410     -0.01453853      0.02766759     -0.04208614
    2
 MD step:         600 time   1.4513305959030001     
 H      0.00499141      0.00267361     -0.41681710      0.00357683      0.00159979     -0.03847008
 H     -0.02099412      0.03986363      0.30179241     -0.01460306      0.02770934     -0.04078457
    2
 MD step:         650 time   1.5722748122282502     
 H      0.00542840      0.00286484     -0.42154395      0.00365502      0.00156899     -0.03967742
 H     -0.02276466      0.04321717      0.29693386     -0.01468125      0.02774014     -0.03957722
    2
 MD step:         700 time   1.6932190285535000     
 H      0.00587384      0.00305155     -0.42640866      0.00371594      0.00152332     -0.04075358
 H     -0.02454367      0.04657523      0.29221319     -0.01474217      0.02778581     -0.03850107
    2
 MD step:         750 time   1.8141632448787501     
 H      0.00632588      0.00323189     -0.43139923      0.00375427      0.00145325     -0.04177022
 H     -0.02632926      0.04993966      0.28761836     -0.01478050      0.02785588     -0.03748442
    2
 MD step:         800 time   1.9351074612040000     
 H      0.00678163      0.00340234     -0.43651317      0.00378343      0.00136394     -0.04281693
 H     -0.02811857      0.05331398      0.28314691     -0.01480966      0.02794519     -0.03643771
    2
 MD step:         850 time   2.0560516775292501     
 H      0.00723991      0.00356027     -0.44175659      0.00381422      0.00126466     -0.04390645
 H     -0.02991041      0.05670082      0.27880494     -0.01484045      0.02804448     -0.03534819
    2
 MD step:         900 time   2.1769958938545000     
 H      0.00770245      0.00370607     -0.44713478      0.00385604      0.00116633     -0.04502385
 H     -0.03170650      0.06009979      0.27459774     -0.01488227      0.02814281     -0.03423080
    2
 MD step:         950 time   2.2979401101797499     
 H      0.00817232      0.00384253     -0.45264336      0.00391472      0.00109241     -0.04603298
 H     -0.03350994      0.06350811      0.27052093     -0.01494095      0.02821673     -0.03322167
    2
 MD step:        1000 time   2.4188843265050002     
 H      0.00865116      0.00397284     -0.45826324      0.00398834      0.00104992     -0.04686805
 H     -0.03532233      0.06692256      0.26655542     -0.01501457      0.02825921     -0.03238660
    2
 MD step:        1050 time   2.5398285428302501     
 H      0.00913804      0.00409856     -0.46397059      0.00405182      0.00102144     -0.04748379
 H     -0.03714278      0.07034161      0.26267737     -0.01507805      0.02828770     -0.03177086
    2
 MD step:        1100 time   2.6607727591554999     
 H      0.00963013      0.00421953     -0.46974262      0.00408126      0.00097683     -0.04794740
 H     -0.03896843      0.07376542      0.25886401     -0.01510749      0.02833230     -0.03130725
    2
 MD step:        1150 time   2.7817169754807503     
 H      0.01012438      0.00433433     -0.47556625      0.00408085      0.00091128     -0.04834722
 H     -0.04079624      0.07719538      0.25510225     -0.01510708      0.02839785     -0.03090743
    2
 MD step:        1200 time   2.9026611918060001     
 H      0.01061875      0.00444133     -0.48143803      0.00407957      0.00084485     -0.04874982
 H     -0.04262416      0.08063315      0.25138864     -0.01510580      0.02846429     -0.03050482
    2
 MD step:        1250 time   3.0236054081312500     
 H      0.01111272      0.00454033     -0.48735604      0.00409277      0.00079811     -0.04911719
 H     -0.04445169      0.08407892      0.24772126     -0.01511901      0.02851102     -0.03013746
    2
 MD step:        1300 time   3.1445496244565003     
 H      0.01160760      0.00463345     -0.49331581      0.00411435      0.00076953     -0.04941823
 H     -0.04628013      0.08753058      0.24409563     -0.01514058      0.02853960     -0.02983641
    2
 MD step:        1350 time   3.2654938407817502     
 H      0.01210508      0.00472499     -0.49930252      0.00412857      0.00076617     -0.04954028
 H     -0.04811117      0.09098381      0.24049695     -0.01515480      0.02854296     -0.02971437
    2
 MD step:        1400 time   3.3864380571070001     
 H      0.01260540      0.00481948     -0.50529252      0.00413736      0.00079474     -0.04947113
 H     -0.04994504      0.09443408      0.23690157     -0.01516359      0.02851439     -0.02978351
    2
 MD step:        1450 time   3.5073822734322500     
 H      0.01310657      0.00491994     -0.51125983      0.00413457      0.00085743     -0.04917444
 H     -0.05177978      0.09787840      0.23328348     -0.01516080      0.02845170     -0.03008021
    2
 MD step:        1500 time   3.6283264897575003     
 H      0.01360507      0.00502796     -0.51717978      0.00410386      0.00092913     -0.04870193
 H     -0.05361184      0.10131514      0.22961805     -0.01513010      0.02838000     -0.03055272
    2
 MD step:        1550 time   3.7492707060827501     
 H      0.01409751      0.00514400     -0.52303610      0.00403551      0.00098912     -0.04812702
 H     -0.05543783      0.10474387      0.22588897     -0.01506175      0.02832001     -0.03112763
    2
 MD step:        1600 time   3.8702149224080000     
 H      0.01458118      0.00526763     -0.52882099      0.00394739      0.00104259     -0.04752632
 H     -0.05725507      0.10816501      0.22208847     -0.01497362      0.02826654     -0.03172833
    2
 MD step:        1650 time   3.9911591387332503     
 H      0.01505408      0.00539812     -0.53453202      0.00386271      0.00110700     -0.04692383
 H     -0.05906153      0.11157929      0.21821411     -0.01488894      0.02820213     -0.03233082
    2
 MD step:        1700 time   4.1121033550585002     
 H      0.01551560      0.00553522     -0.54017148      0.00378527      0.00117801     -0.04634318
 H     -0.06085660      0.11498697      0.21426817     -0.01481150      0.02813112     -0.03291147
    2
 MD step:        1750 time   4.2330475713837501     
 H      0.01596652      0.00568071     -0.54573895      0.00369805      0.00125529     -0.04571826
 H     -0.06264108      0.11838624      0.21025026     -0.01472428      0.02805384     -0.03353639
    2
 MD step:        1800 time   4.3539917877090000     
 H      0.01640819      0.00583804     -0.55122879      0.00360836      0.00134823     -0.04505184
 H     -0.06441631      0.12177369      0.20615471     -0.01463459      0.02796090     -0.03420280
    2
 MD step:        1850 time   4.4749360040342498     
 H      0.01684121      0.00601070     -0.55663146      0.00352817      0.00148840     -0.04426603
 H     -0.06618289      0.12514579      0.20197198     -0.01455440      0.02782073     -0.03498862
    2
 MD step:        1900 time   4.5958802203594997     
 H      0.01726435      0.00620252     -0.56192959      0.00345413      0.00167558     -0.04333613
 H     -0.06793958      0.12849874      0.19768473     -0.01448036      0.02763356     -0.03591852
    2
 MD step:        1950 time   4.7168244366847505     
 H      0.01767603      0.00641677     -0.56710733      0.00335985      0.00188320     -0.04226270
 H     -0.06968482      0.13182926      0.19327707     -0.01438608      0.02742593     -0.03699195
    2
 MD step:        2000 time   4.8377686530100004     
 H      0.01807412      0.00665671     -0.57214731      0.00322927      0.00209671     -0.04105896
 H     -0.07141648      0.13513409      0.18873166     -0.01425550      0.02721243     -0.03819568
    2
 MD step:        2050 time   4.9587128693352502     
 H      0.01845601      0.00692391     -0.57703704      0.00307753      0.00231720     -0.03978849
 H     -0.07313192      0.13841167      0.18403600     -0.01410377      0.02699193     -0.03946616
    2
 MD step:        2100 time   5.0796570856605001     
 H      0.01881871      0.00721798     -0.58177060      0.00291623      0.00254296     -0.03849429
 H     -0.07482818      0.14166237      0.17918417     -0.01394246      0.02676617     -0.04076036
    2
 MD step:        2150 time   5.2006013019857500     
 H      0.01915997      0.00753771     -0.58634848      0.00273810      0.00275384     -0.03721873
 H     -0.07650300      0.14488741      0.17417665     -0.01376433      0.02655529     -0.04203592
    2
 MD step:        2200 time   5.3215455183109999     
 H      0.01947917      0.00788185     -0.59077703      0.00254491      0.00293620     -0.03602483
 H     -0.07815576      0.14808804      0.16901982     -0.01357114      0.02637293     -0.04322982
    2
 MD step:        2250 time   5.4424897346362506     
 H      0.01977701      0.00824869     -0.59506789      0.00236039      0.00310978     -0.03493210
 H     -0.07978715      0.15126596      0.16372528     -0.01338662      0.02619935     -0.04432255
    2
 MD step:        2300 time   5.5634339509615005     
 H      0.02005412      0.00863692     -0.59923110      0.00220622      0.00329487     -0.03392969
 H     -0.08139783      0.15442250      0.15830310     -0.01323246      0.02601426     -0.04532496
    2
 MD step:        2350 time   5.6843781672867504     
 H      0.02031215      0.00904550     -0.60327864      0.00207599      0.00348015     -0.03301369
 H     -0.08298941      0.15755869      0.15276525     -0.01310222      0.02582898     -0.04624095
    2
 MD step:        2400 time   5.8053223836120003     
 H      0.02055327      0.00947568     -0.60721660      0.00194139      0.00366270     -0.03210802
 H     -0.08456409      0.16067328      0.14711782     -0.01296762      0.02564643     -0.04714663
    2
 MD step:        2450 time   5.9262665999372501     
 H      0.02077967      0.00992980     -0.61104660      0.00180868      0.00384866     -0.03122345
 H     -0.08612405      0.16376393      0.14136243     -0.01283491      0.02546048     -0.04803120
    2
 MD step:        2500 time   6.0472108162625000     
 H      0.02099235      0.01040981     -0.61476708      0.00168774      0.00406923     -0.03029303
 H     -0.08767030      0.16682869      0.13549752     -0.01271397      0.02523990     -0.04896162
    2
 MD step:        2550 time   6.1681550325877499     
 H      0.02119048      0.01091761     -0.61837126      0.00157579      0.00431680     -0.02931469
 H     -0.08920198      0.16986566      0.12951630     -0.01260202      0.02499233     -0.04993995
    2
 MD step:        2600 time   6.2890992489130007     
 H      0.02137312      0.01145405     -0.62185552      0.00144910      0.00456200     -0.02830241
 H     -0.09071818      0.17287400      0.12341518     -0.01247533      0.02474713     -0.05095224
    2
 MD step:        2650 time   6.4100434652382505     
 H      0.02153912      0.01201931     -0.62521743      0.00129937      0.00478748     -0.02729531
 H     -0.09221774      0.17585351      0.11719170     -0.01232560      0.02452166     -0.05195934
    2
 MD step:        2700 time   6.5309876815635004     
 H      0.02168733      0.01261124     -0.62846112      0.00114596      0.00499056     -0.02636037
 H     -0.09369951      0.17880635      0.11084999     -0.01217219      0.02431857     -0.05289428
    2
 MD step:        2750 time   6.6519318978887503     
 H      0.02181705      0.01322545     -0.63159846      0.00100430      0.00516241     -0.02555493
 H     -0.09516279      0.18173690      0.10440194     -0.01203053      0.02414672     -0.05369972
    2
 MD step:        2800 time   6.7728761142140002     
 H      0.02192919      0.01385686     -0.63464794      0.00087089      0.00528760     -0.02490669
 H     -0.09660849      0.18465026      0.09786603     -0.01189712      0.02402153     -0.05434795
    2
 MD step:        2850 time   6.8938203305392500     
 H      0.02202673      0.01450097     -0.63763150      0.00075490      0.00536048     -0.02446006
 H     -0.09803958      0.18755093      0.09126420     -0.01178113      0.02394866     -0.05479459
    2
 MD step:        2900 time   7.0147645468644999     
 H      0.02211410      0.01515379     -0.64057230      0.00067643      0.00541306     -0.02418347
 H     -0.09946051      0.19044287      0.08461961     -0.01170267      0.02389607     -0.05507118
    2
 MD step:        2950 time   7.1357087631897507     
 H      0.02219518      0.01581325     -0.64348625      0.00064900      0.00547096     -0.02402620
 H     -0.10087515      0.19332819      0.07794817     -0.01167524      0.02383817     -0.05522844
    2
 MD step:        3000 time   7.2566529795150005     
 H      0.02227381      0.01647821     -0.64638581      0.00065507      0.00553185     -0.02392974
 H     -0.10228734      0.19620800      0.07126233     -0.01168130      0.02377729     -0.05532491
    2
 MD step:        3050 time   7.3775971958402504     
 H      0.02235244      0.01714950     -0.64927422      0.00066177      0.00558591     -0.02383586
 H     -0.10369952      0.19908147      0.06456536     -0.01168800      0.02372322     -0.05541879
    2
 MD step:        3100 time   7.4985414121655003     
 H      0.02243227      0.01782687     -0.65215343      0.00066391      0.00561930     -0.02377256
 H     -0.10511292      0.20194887      0.05785917     -0.01169014      0.02368983     -0.05548209
    2
 MD step:        3150 time   7.6194856284907502     
 H      0.02251289      0.01850746     -0.65502745      0.00066757      0.00562580     -0.02376963
 H     -0.10652710      0.20481306      0.05114780     -0.01169380      0.02368333     -0.05548502
    2
 MD step:        3200 time   7.7404298448160000     
 H      0.02259386      0.01918536     -0.65790819      0.00067958      0.00558018     -0.02389776
 H     -0.10794162      0.20767993      0.04444315     -0.01170581      0.02372896     -0.05535689
    2
 MD step:        3250 time   7.8613740611412499     
 H      0.02267672      0.01985315     -0.66081631      0.00070713      0.00546049     -0.02422741
 H     -0.10935805      0.21055691      0.03776588     -0.01173337      0.02384864     -0.05502724
    2
 MD step:        3300 time   7.9823182774665007     
 H      0.02276585      0.02050359     -0.66377812      0.00076826      0.00528278     -0.02476923
 H     -0.11078073      0.21345123      0.03114230     -0.01179449      0.02402635     -0.05448542
    2
 MD step:        3350 time   8.1032624937917497     
 H      0.02286665      0.02113205     -0.66681552      0.00088611      0.00508473     -0.02548065
 H     -0.11221510      0.21636755      0.02459430     -0.01191234      0.02422440     -0.05377400
    2
 MD step:        3400 time   8.2242067101170004     
 H      0.02298459      0.02173611     -0.66994412      0.00105426      0.00489408     -0.02626362
 H     -0.11366660      0.21930825      0.01813751     -0.01208049      0.02441505     -0.05299102
    2
 MD step:        3450 time   8.3451509264422494     
 H      0.02312279      0.02231647     -0.67316664      0.00123643      0.00470755     -0.02703313
 H     -0.11513835      0.22227266      0.01177465     -0.01226266      0.02460159     -0.05222152
    2
 MD step:        3500 time   8.4660951427675002     
 H      0.02328233      0.02287301     -0.67648219      0.00140665      0.00449940     -0.02779390
 H     -0.11663145      0.22526089      0.00550480     -0.01243288      0.02480973     -0.05146074
    2
 MD step:        3550 time   8.5870393590927510     
 H      0.02346228      0.02340280     -0.67989153      0.00156779      0.00425086     -0.02860264
 H     -0.11814495      0.22827587     -0.00067124     -0.01259402      0.02505827     -0.05065200
    2
 MD step:        3600 time   8.7079835754179999     
 H      0.02366198      0.02389921     -0.68340486      0.00174078      0.00395039     -0.02952959
 H     -0.11967822      0.23132424     -0.00674331     -0.01276701      0.02535874     -0.04972506
    2
 MD step:        3650 time   8.8289277917432507     
 H      0.02388333      0.02435487     -0.68704013      0.00194395      0.00359307     -0.03061943
 H     -0.12123313      0.23441335     -0.01269343     -0.01297018      0.02571606     -0.04863522
    2
 MD step:        3700 time   8.9498720080684997     
 H      0.02413102      0.02476543     -0.69081473      0.00217551      0.00321153     -0.03180416
 H     -0.12281437      0.23754755     -0.01850422     -0.01320174      0.02609761     -0.04745049
    2
 MD step:        3750 time   9.0708162243937505     
 H      0.02440973      0.02513141     -0.69473504      0.00243653      0.00284109     -0.03301027
 H     -0.12442665      0.24072635     -0.02416930     -0.01346276      0.02646804     -0.04624438
    2
 MD step:        3800 time   9.1917604407189994     
 H      0.02472152      0.02545569     -0.69879606      0.00270489      0.00251272     -0.03412326
 H     -0.12607199      0.24394684     -0.02969368     -0.01373112      0.02679642     -0.04513139
    2
 MD step:        3850 time   9.3127046570442502     
 H      0.02506445      0.02574112     -0.70298498      0.00295547      0.00220027     -0.03513769
 H     -0.12774848      0.24720618     -0.03509015     -0.01398170      0.02710886     -0.04411696
    2
 MD step:        3900 time   9.4336488733695010     
 H      0.02543525      0.02598727     -0.70729355      0.00317159      0.00186393     -0.03610987
 H     -0.12945284      0.25050480     -0.04036697     -0.01419782      0.02744521     -0.04314478
    2
 MD step:        3950 time   9.5545930896947500     
 H      0.02583174      0.02619075     -0.71172242      0.00337386      0.00148670     -0.03712964
 H     -0.13118288      0.25384609     -0.04552349     -0.01440009      0.02782243     -0.04212501
    2
 MD step:        4000 time   9.6755373060200007     
 H      0.02625396      0.02634804     -0.71627763      0.00359434      0.00109798     -0.03820740
 H     -0.13293867      0.25723357     -0.05055367     -0.01462057      0.02821116     -0.04104724
    2
 MD step:        4050 time   9.7964815223452497     
 H      0.02670400      0.02645827     -0.72096426      0.00384434      0.00073160     -0.03928911
 H     -0.13472227      0.26066810     -0.05545243     -0.01487057      0.02857753     -0.03996554
    2
 MD step:        4100 time   9.9174257386705005     
 H      0.02718314      0.02652622     -0.72577540      0.00409046      0.00041836     -0.04025090
 H     -0.13653496      0.26414493     -0.06022668     -0.01511669      0.02889077     -0.03900375
    2
 MD step:        4150 time   10.038369954995749     
 H      0.02769045      0.02655945     -0.73069416      0.00430451      0.00015623     -0.04104917
 H     -0.13837584      0.26765647     -0.06489332     -0.01533074      0.02915290     -0.03820548
    2
 MD step:        4200 time   10.159314171321000     
 H      0.02822152      0.02656501     -0.73569816      0.00447090     -0.00005711     -0.04167023
 H     -0.14024046      0.27119567     -0.06947470     -0.01549713      0.02936624     -0.03758442
    2
 MD step:        4250 time   10.280258387646251     
 H      0.02877018      0.02654629     -0.74076945      0.00459724     -0.00024943     -0.04217915
 H     -0.14212268      0.27475916     -0.07398881     -0.01562347      0.02955856     -0.03707550
    2
 MD step:        4300 time   10.401202603971500     
 H      0.02933138      0.02650352     -0.74589904      0.00469197     -0.00044980     -0.04264666
 H     -0.14401745      0.27834670     -0.07844461     -0.01571820      0.02975894     -0.03660799
    2
 MD step:        4350 time   10.522146820296751     
 H      0.02990308      0.02643623     -0.75108533      0.00476604     -0.00065681     -0.04310299
 H     -0.14592270      0.28195876     -0.08284371     -0.01579227      0.02996594     -0.03615166
    2
 MD step:        4400 time   10.643091036622000     
 H      0.03048488      0.02634652     -0.75632544      0.00484083     -0.00083731     -0.04353526
 H     -0.14783806      0.28559325     -0.08718899     -0.01586706      0.03014644     -0.03571938
    2
 MD step:        4450 time   10.764035252947250     
 H      0.03107668      0.02623903     -0.76161237      0.00492056     -0.00094620     -0.04386735
 H     -0.14976342      0.28924550     -0.09148745     -0.01594679      0.03025534     -0.03538730
    2
 MD step:        4500 time   10.884979469272501     
 H      0.03167595      0.02612258     -0.76692834      0.00497983     -0.00096774     -0.04401978
 H     -0.15169625      0.29290673     -0.09575687     -0.01600606      0.03027688     -0.03523487
    2
 MD step:        4550 time   11.005923685597750     
 H      0.03227866      0.02600684     -0.77225155      0.00498780     -0.00092013     -0.04397406
 H     -0.15363251      0.29656724     -0.10001905     -0.01601403      0.03022927     -0.03528059
    2
 MD step:        4600 time   11.126867901923001     
 H      0.03287874      0.02590104     -0.77755783      0.00493160     -0.00081569     -0.04374393
 H     -0.15556615      0.30021780     -0.10429816     -0.01595783      0.03012482     -0.03551072
    2
 MD step:        4650 time   11.247812118248250     
 H      0.03346952      0.02581093     -0.78282800      0.00482867     -0.00067205     -0.04339075
 H     -0.15749050      0.30385269     -0.10861339     -0.01585490      0.02998118     -0.03586390
    2
 MD step:        4700 time   11.368756334573501     
 H      0.03404513      0.02573882     -0.78805053      0.00469329     -0.00051359     -0.04297286
 H     -0.15939966      0.30746956     -0.11297625     -0.01571952      0.02982273     -0.03628179
    2
 MD step:        4750 time   11.489700550898750     
 H      0.03460203      0.02568530     -0.79322126      0.00452747     -0.00035936     -0.04252874
 H     -0.16129012      0.31106786     -0.11739091     -0.01555370      0.02966849     -0.03672590
    2
 MD step:        4800 time   11.610644767224001     
 H      0.03513887      0.02565131     -0.79833897      0.00434716     -0.00020786     -0.04209246
 H     -0.16316052      0.31464662     -0.12185859     -0.01537339      0.02951699     -0.03716219
    2
 MD step:        4850 time   11.731588983549251     
 H      0.03565570      0.02563817     -0.80340372      0.00417308     -0.00002380     -0.04164403
 H     -0.16501091      0.31820452     -0.12637923     -0.01519931      0.02933293     -0.03761062
    2
 MD step:        4900 time   11.852533199874500     
 H      0.03615143      0.02565005     -0.80840980      0.00400748      0.00022000     -0.04113235
 H     -0.16684020      0.32173741     -0.13095855     -0.01503372      0.02908914     -0.03812229
    2
 MD step:        4950 time   11.973477416199751     
 H      0.03662491      0.02569267     -0.81334903      0.00382914      0.00051603     -0.04052657
 H     -0.16864723      0.32523956     -0.13560471     -0.01485538      0.02879311     -0.03872808
    2
 MD step:        5000 time   12.094421632525000     
 H      0.03707360      0.02577461     -0.81820703      0.00360435      0.00087078     -0.03977897
 H     -0.17042949      0.32870239     -0.14033210     -0.01463058      0.02843835     -0.03947568
    2
 MD step:        5050 time   12.215365848850251     
 H      0.03749389      0.02590434     -0.82296739      0.00334005      0.00128227     -0.03891167
 H     -0.17218333      0.33211744     -0.14515712     -0.01436628      0.02802686     -0.04034298
    2
 MD step:        5100 time   12.336310065175500     
 H      0.03788087      0.02608841     -0.82761469      0.00304246      0.00175745     -0.03792094
 H     -0.17390387      0.33547814     -0.15009522     -0.01406869      0.02755168     -0.04133370
    2
 MD step:        5150 time   12.457254281500751     
 H      0.03822922      0.02633149     -0.83213625      0.00271227      0.00226454     -0.03684459
 H     -0.17558578      0.33877983     -0.15515905     -0.01373850      0.02704460     -0.04241005
    2
 MD step:        5200 time   12.578198497826001     
 H      0.03853514      0.02663572     -0.83652547      0.00234652      0.00276856     -0.03573381
 H     -0.17722526      0.34202037     -0.16035522     -0.01337275      0.02654057     -0.04352083
    2
 MD step:        5250 time   12.699142714151250     
 H      0.03879655      0.02700081     -0.84078140      0.00196470      0.00325725     -0.03464352
 H     -0.17882023      0.34520005     -0.16568469     -0.01299093      0.02605189     -0.04461113
    2
 MD step:        5300 time   12.820086930476501     
 H      0.03901240      0.02742441     -0.84490744      0.00159427      0.00373414     -0.03360300
 H     -0.18036964      0.34832122     -0.17114403     -0.01262050      0.02557499     -0.04565165
    2
 MD step:        5350 time   12.941031146801750     
 H      0.03918332      0.02790268     -0.84891166      0.00124678      0.00418205     -0.03263804
 H     -0.18187412      0.35138772     -0.17672520     -0.01227301      0.02512709     -0.04661661
    2
 MD step:        5400 time   13.061975363127001     
 H      0.03931144      0.02843284     -0.85280291      0.00090204      0.00460163     -0.03172473
 H     -0.18333580      0.35440233     -0.18241934     -0.01192827      0.02470750     -0.04752992
    2
 MD step:        5450 time   13.182919579452250     
 H      0.03939974      0.02901387     -0.85658823      0.00056846      0.00499951     -0.03087659
 H     -0.18475765      0.35736606     -0.18821941     -0.01159469      0.02430962     -0.04837806
    2
 MD step:        5500 time   13.303863795777501     
 H      0.03945107      0.02964532     -0.86027300      0.00025807      0.00542036     -0.03005112
 H     -0.18614254      0.36027939     -0.19412003     -0.01128430      0.02388878     -0.04920353
    2
 MD step:        5550 time   13.424808012102751     
 H      0.03946609      0.03032919     -0.86385656     -0.00002711      0.00587938     -0.02921278
 H     -0.18749112      0.36314029     -0.20012187     -0.01099912      0.02342975     -0.05004187
    2
 MD step:        5600 time   13.545752228428000     
 H      0.03944528      0.03106793     -0.86733738     -0.00031095      0.00635949     -0.02834175
 H     -0.18880387      0.36594632     -0.20622644     -0.01071528      0.02294964     -0.05091290
    2
 MD step:        5650 time   13.666696444753251     
 H      0.03938807      0.03186576     -0.87071010     -0.00062118      0.00685585     -0.02741882
 H     -0.19008022      0.36869326     -0.21243911     -0.01040505      0.02245328     -0.05183583
    2
 MD step:        5700 time   13.787640661078500     
 H      0.03929342      0.03272534     -0.87397003     -0.00094526      0.00735935     -0.02647841
 H     -0.19131913      0.37137845     -0.21876458     -0.01008097      0.02194978     -0.05277624
    2
 MD step:        5750 time   13.908584877403751     
 H      0.03915976      0.03364657     -0.87711523     -0.00127163      0.00786507     -0.02553575
 H     -0.19251903      0.37400199     -0.22520477     -0.00975460      0.02144406     -0.05371890
    2
 MD step:        5800 time   14.029529093729000     
 H      0.03898609      0.03462656     -0.88014838     -0.00159593      0.00833595     -0.02463487