    2
 MD step:           0 time   0.0000000000000000     
 H      0.00000000      0.00000000     -0.37000000      0.01509568      0.01007018      0.00627136
 H      0.00000000      0.00000000      0.37000000     -0.00251278      0.00524450      0.00321410
    2
 MD step:          50 time  0.12094421632525000     
 H      0.00182574      0.00121793     -0.36924944      0.01509589      0.01007023      0.00611995
 H     -0.00030391      0.00063429      0.37039665     -0.00251299      0.00524444      0.00336551
    2
 MD step:         100 time  0.24188843265050000     
 H      0.00365155      0.00243588     -0.36852596      0.01509673      0.01007046      0.00584654
 H     -0.00060789      0.00126856      0.37082038     -0.00251383      0.00524421      0.00363892
    2
 MD step:         150 time  0.36283264897575002     
 H      0.00547748      0.00365386     -0.36783002      0.01509795      0.01007080      0.00566915
 H     -0.00091200      0.00190280      0.37127166     -0.00251505      0.00524387      0.00381631
    2
 MD step:         200 time  0.48377686530100000     
 H      0.00730359      0.00487189     -0.36715574      0.01509966      0.01007126      0.00546354
 H     -0.00121627      0.00253699      0.37174459     -0.00251676      0.00524341      0.00402192
    2
 MD step:         250 time  0.60472108162625005     
 H      0.00912996      0.00609000     -0.36651199      0.01510244      0.01007203      0.00519428
 H     -0.00152082      0.00317111      0.37224804     -0.00251954      0.00524265      0.00429118
    2
 MD step:         300 time  0.72566529795150003     
 H      0.01095670      0.00730820     -0.36589665      0.01510557      0.01007288      0.00497742
 H     -0.00182573      0.00380512      0.37277992     -0.00252267      0.00524179      0.00450804
    2
 MD step:         350 time  0.84660951427675002     
 H      0.01278383      0.00852651     -0.36530797      0.01510888      0.01007379      0.00475190
 H     -0.00213102      0.00443903      0.37333845     -0.00252598      0.00524088      0.00473356
    2
 MD step:         400 time  0.96755373060200001     
 H      0.01461142      0.00974495     -0.36474778      0.01511338      0.01007503      0.00451957
 H     -0.00243679      0.00507282      0.37392547     -0.00253048      0.00523965      0.00496589
    2
 MD step:         450 time   1.0884979469272500     
 H      0.01643960      0.01096355     -0.36421609      0.01511836      0.01007639      0.00426714
 H     -0.00274314      0.00570644      0.37454100     -0.00253546      0.00523828      0.00521832
    2
 MD step:         500 time   1.2094421632525001     
 H      0.01826834      0.01218231     -0.36371257      0.01512275      0.01007759      0.00406733
 H     -0.00305005      0.00633990      0.37518468     -0.00253985      0.00523708      0.00541813
    2
 MD step:         550 time   1.3303863795777500     
 H      0.02009766      0.01340122     -0.36323152      0.01512809      0.01007906      0.00388123
 H     -0.00335754      0.00697321      0.37585085     -0.00254519      0.00523562      0.00560423
    2
 MD step:         600 time   1.4513305959030001     
 H      0.02192769      0.01462032     -0.36277794      0.01513412      0.01008071      0.00362357
 H     -0.00366574      0.00760633      0.37654448     -0.00255122      0.00523396      0.00586189
    2
 MD step:         650 time   1.5722748122282502     
 H      0.02375835      0.01583960     -0.36234900      0.01513855      0.01008192      0.00348340
 H     -0.00397457      0.00823927      0.37726275     -0.00255565      0.00523275      0.00600206
    2
 MD step:         700 time   1.6932190285535000     
 H      0.02558955      0.01705903     -0.36193533      0.01514345      0.01008327      0.00333756
 H     -0.00428394      0.00887207      0.37799629     -0.00256055      0.00523141      0.00614790
    2
 MD step:         750 time   1.8141632448787501     
 H      0.02742142      0.01827864     -0.36154570      0.01514909      0.01008481      0.00312430
 H     -0.00459398      0.00950468      0.37875387     -0.00256619      0.00522986      0.00636116
    2
 MD step:         800 time   1.9351074612040000     
 H      0.02925382      0.01949840     -0.36117286      0.01515220      0.01008566      0.00305066
 H     -0.00490456      0.01013714      0.37952825     -0.00256930      0.00522901      0.00643480
    2
 MD step:         850 time   2.0560516775292501     
 H      0.03108653      0.02071824     -0.36080861      0.01515490      0.01008640      0.00295176
 H     -0.00521544      0.01076952      0.38031121     -0.00257200      0.00522827      0.00653370
    2
 MD step:         900 time   2.1769958938545000     
 H      0.03291965      0.02193819     -0.36046052      0.01515831      0.01008734      0.00282882
 H     -0.00552673      0.01140179      0.38111033     -0.00257541      0.00522733      0.00665664
    2
 MD step:         950 time   2.2979401101797499     
 H      0.03475302      0.02315821     -0.36012001      0.01515877      0.01008747      0.00280461
 H     -0.00583827      0.01203399      0.38191703     -0.00257587      0.00522721      0.00668085
    2
 MD step:        1000 time   2.4188843265050002     
 H      0.03658630      0.02437821     -0.35978208      0.01515751      0.01008712      0.00277383
 H     -0.00614973      0.01266621      0.38272631     -0.00257461      0.00522755      0.00671163
    2
 MD step:        1050 time   2.5398285428302501     
 H      0.03841947      0.02559818     -0.35944819      0.01515662      0.01008688      0.00276307
 H     -0.00646107      0.01329846      0.38353963     -0.00257373      0.00522780      0.00672239
    2
 MD step:        1100 time   2.6607727591554999     
 H      0.04025241      0.02681808     -0.35911353      0.01515322      0.01008594      0.00277213
 H     -0.00677218      0.01393078      0.38435219     -0.00257032      0.00522873      0.00671333
    2
 MD step:        1150 time   2.7817169754807503     
 H      0.04208470      0.02803781     -0.35877469      0.01514633      0.01008406      0.00283649
 H     -0.00708264      0.01456328      0.38516056     -0.00256344      0.00523062      0.00664897
    2
 MD step:        1200 time   2.9026611918060001     
 H      0.04391615      0.02925730     -0.35842607      0.01513957      0.01008220      0.00292474
 H     -0.00739225      0.01519600      0.38595915     -0.00255667      0.00523247      0.00656072
    2
 MD step:        1250 time   3.0236054081312500     
 H      0.04574673      0.03047656     -0.35807024      0.01513124      0.01007992      0.00296886
 H     -0.00770101      0.01582897      0.38675053     -0.00254834      0.00523475      0.00651659
    2
 MD step:        1300 time   3.1445496244565003     
 H      0.04757599      0.03169545     -0.35770192      0.01511779      0.01007624      0.00313470
 H     -0.00800843      0.01646229      0.38752942     -0.00253489      0.00523844      0.00635076
    2
 MD step:        1350 time   3.2654938407817502     
 H      0.04940353      0.03291388     -0.35731185      0.01510387      0.01007242      0.00329613
 H     -0.00831415      0.01709609      0.38828656     -0.00252097      0.00524225      0.00618933
    2
 MD step:        1400 time   3.3864380571070001     
 H      0.05122945      0.03413186     -0.35690830      0.01508973      0.01006855      0.00339682
 H     -0.00861824      0.01773033      0.38903022     -0.00250683      0.00524613      0.00608864
    2
 MD step:        1450 time   3.5073822734322500     
 H      0.05305330      0.03534927     -0.35648352      0.01506980      0.01006308      0.00363676
 H     -0.00892026      0.01836514      0.38975266     -0.00248690      0.00525159      0.00584870
    2
 MD step:        1500 time   3.6283264897575003     
 H      0.05487459      0.03656598     -0.35602963      0.01504841      0.01005722      0.00384763
 H     -0.00921972      0.01900065      0.39044597     -0.00246551      0.00525745      0.00563783
    2
 MD step:        1550 time   3.7492707060827501     
 H      0.05669339      0.03778201     -0.35555474      0.01502778      0.01005157      0.00402751
 H     -0.00951669      0.01963684      0.39111830     -0.00244488      0.00526311      0.00545795
    2
 MD step:        1600 time   3.8702149224080000     
 H      0.05850943      0.03899728     -0.35505156      0.01500236      0.01004460      0.00429320
 H     -0.00981090      0.02027379      0.39176233     -0.00241946      0.00527007      0.00519226
    2
 MD step:        1650 time   3.9911591387332503     
 H      0.06032214      0.04021164     -0.35451641      0.01497387      0.01003679      0.00454745
 H     -0.01010179      0.02091165      0.39237439     -0.00239097      0.00527788      0.00493801
    2
 MD step:        1700 time   4.1121033550585002     
 H      0.06213151      0.04142509     -0.35395156      0.01494685      0.01002939      0.00480415
 H     -0.01038932      0.02155043      0.39295675     -0.00236395      0.00528529      0.00468131
    2
 MD step:        1750 time   4.2330475713837501     
 H      0.06393753      0.04263761     -0.35335528      0.01491765      0.01002138      0.00505143
 H     -0.01067351      0.02219012      0.39350768     -0.00233475      0.00529329      0.00443403
    2
 MD step:        1800 time   4.3539917877090000     
 H      0.06573969      0.04384908     -0.35272697      0.01488369      0.01001208      0.00534573
 H     -0.01095385      0.02283087      0.39402658     -0.00230079      0.00530259      0.00413973
    2
 MD step:        1850 time   4.4749360040342498     
 H      0.06753778      0.04505944     -0.35206161      0.01485105      0.01000313      0.00564953
 H     -0.01123011      0.02347274      0.39450844     -0.00226815      0.00531154      0.00383593
    2
 MD step:        1900 time   4.5958802203594997     
 H      0.06933206      0.04626875     -0.35136527      0.01481973      0.00999455      0.00586428
 H     -0.01150256      0.02411565      0.39495930     -0.00223683      0.00532012      0.00362118
    2
 MD step:        1950 time   4.7168244366847505     
 H      0.07112224      0.04747693     -0.35063771      0.01478301      0.00998449      0.00618080
 H     -0.01177091      0.02475969      0.39537896     -0.00220011      0.00533019      0.00330466
    2
 MD step:        2000 time   4.8377686530100004     
 H      0.07290793      0.04868388     -0.34987064      0.01474695      0.00997460      0.00648340
 H     -0.01203477      0.02540496      0.39575910     -0.00216405      0.00534007      0.00300206
    2
 MD step:        2050 time   4.9587128693352502     
 H      0.07468956      0.04988973     -0.34907513      0.01471505      0.00996586      0.00667871
 H     -0.01229458      0.02605133      0.39611080     -0.00213215      0.00534881      0.00280675
    2
 MD step:        2100 time   5.0796570856605001     
 H      0.07646712      0.05109445     -0.34824969      0.01467896      0.00995597      0.00697780
 H     -0.01255031      0.02669883      0.39643257     -0.00209606      0.00535870      0.00250766
    2
 MD step:        2150 time   5.2006013019857500     
 H      0.07824020      0.05229795     -0.34738865      0.01464235      0.00994594      0.00724214
 H     -0.01280155      0.02734755      0.39671874     -0.00205945      0.00536873      0.00224332
    2
 MD step:        2200 time   5.3215455183109999     
 H      0.08000921      0.05350034     -0.34650168      0.01461147      0.00993747      0.00743512
 H     -0.01304874      0.02799739      0.39697898     -0.00202857      0.00537720      0.00205034
    2
 MD step:        2250 time   5.4424897346362506     
 H      0.08177450      0.05470170     -0.34558810      0.01457980      0.00992880      0.00766542
 H     -0.01329219      0.02864825      0.39721262     -0.00199691      0.00538588      0.00182004
    2
 MD step:        2300 time   5.5634339509615005     
 H      0.08353579      0.05590197     -0.34464807      0.01454627      0.00991961      0.00787486
 H     -0.01353166      0.02930020      0.39741980     -0.00196337      0.00539507      0.00161060
    2
 MD step:        2350 time   5.6843781672867504     
 H      0.08529333      0.05710121     -0.34368446      0.01451833      0.00991195      0.00806257
 H     -0.01376737      0.02995318      0.39760340     -0.00193543      0.00540272      0.00142289
    2
 MD step:        2400 time   5.8053223836120003     
 H      0.08704777      0.05829960     -0.34270070      0.01449415      0.00990532      0.00819013
 H     -0.01399998      0.03060701      0.39776685     -0.00191125      0.00540935      0.00129533
    2
 MD step:        2450 time   5.9262665999372501     
 H      0.08879914      0.05949715     -0.34170144      0.01446728      0.00989796      0.00834463
 H     -0.01422952      0.03126168      0.39791480     -0.00188438      0.00541671      0.00114083
    2
 MD step:        2500 time   6.0472108162625000     
 H      0.09054744      0.06069386     -0.34068241      0.01444505      0.00989187      0.00849565
 H     -0.01445600      0.03191719      0.39804298     -0.00186215      0.00542280      0.00098981
    2
 MD step:        2550 time   6.1681550325877499     
 H      0.09229359      0.06188998     -0.33965287      0.01443063      0.00988792      0.00851780
 H     -0.01468031      0.03257330      0.39816066     -0.00184773      0.00542676      0.00096765
    2
 MD step:        2600 time   6.2890992489130007     
 H      0.09403789      0.06308559     -0.33861766      0.01441357      0.00988324      0.00861507
 H     -0.01490278      0.03322991      0.39827266     -0.00183068      0.00543143      0.00087039
    2
 MD step:        2650 time   6.4100434652382505     
 H      0.09578020      0.06428065     -0.33756983      0.01439975      0.00987945      0.00869221
 H     -0.01512326      0.03388706      0.39837204     -0.00181685      0.00543522      0.00079325
    2
 MD step:        2700 time   6.5309876815635004     
 H      0.09752149      0.06547544     -0.33652186      0.01439608      0.00987845      0.00863657
 H     -0.01534273      0.03454450      0.39847128     -0.00181318      0.00543623      0.00084889
    2
 MD step:        2750 time   6.6519318978887503     
 H      0.09926236      0.06667011     -0.33547628      0.01439146      0.00987718      0.00865878
 H     -0.01556177      0.03520204      0.39857291     -0.00180856      0.00543749      0.00082667
    2
 MD step:        2800 time   6.7728761142140002     
 H      0.10100266      0.06786463     -0.33442902      0.01438841      0.00987634      0.00864153
 H     -0.01578024      0.03585975      0.39867286     -0.00180551      0.00543833      0.00084393
    2
 MD step:        2850 time   6.8938203305392500     
 H      0.10274322      0.06905921     -0.33339028      0.01439555      0.00987830      0.00854204
 H     -0.01599897      0.03651738      0.39878134     -0.00181265      0.00543637      0.00094342
    2
 MD step:        2900 time   7.0147645468644999     
 H      0.10448484      0.07025409     -0.33236120      0.01440459      0.00988078      0.00846706
 H     -0.01621876      0.03717473      0.39889947     -0.00182169      0.00543389      0.00101840
    2
 MD step:        2950 time   7.1357087631897507     
 H      0.10622746      0.07144924     -0.33134290      0.01441318      0.00988313      0.00836722
 H     -0.01643956      0.03783180      0.39902837     -0.00183028      0.00543154      0.00111824
    2
 MD step:        3000 time   7.2566529795150005     
 H      0.10797162      0.07264481     -0.33033871      0.01443058      0.00988790      0.00824097
 H     -0.01666188      0.03848845      0.39917140     -0.00184768      0.00542677      0.00124449
    2
 MD step:        3050 time   7.3775971958402504     
 H      0.10971828      0.07384108     -0.32935219      0.01445323      0.00989411      0.00805968
 H     -0.01688672      0.03914441      0.39933209     -0.00187033      0.00542056      0.00142578
    2
 MD step:        3100 time   7.4985414121655003     
 H      0.11146750      0.07503804     -0.32838704      0.01447288      0.00989949      0.00790869
 H     -0.01711411      0.03979967      0.39951415     -0.00188998      0.00541518      0.00157677
    2
 MD step:        3150 time   7.6194856284907502     
 H      0.11321939      0.07623573     -0.32743932      0.01449906      0.00990667      0.00775358
 H     -0.01734417      0.04045420      0.39971364     -0.00191616      0.00540800      0.00173188
    2
 MD step:        3200 time   7.7404298448160000     
 H      0.11497502      0.07743444     -0.32651720      0.01453305      0.00991598      0.00748987
 H     -0.01757797      0.04110770      0.39993873     -0.00195015      0.00539869      0.00199559
    2
 MD step:        3250 time   7.8613740611412499     
 H      0.11673448      0.07863421     -0.32562262      0.01456182      0.00992387      0.00731600
 H     -0.01781560      0.04176016      0.40019136     -0.00197893      0.00539080      0.00216946
    2
 MD step:        3300 time   7.9823182774665007     
 H      0.11849752      0.07983496     -0.32474819      0.01459469      0.00993288      0.00712295
 H     -0.01805681      0.04241163      0.40046415     -0.00201179      0.00538180      0.00236251
    2
 MD step:        3350 time   8.1032624937917497     
 H      0.12026517      0.08103697     -0.32390519      0.01463599      0.00994419      0.00682715
 H     -0.01830263      0.04306184      0.40076836     -0.00205309      0.00537048      0.00265831
    2
 MD step:        3400 time   8.2242067101170004     
 H      0.12203747      0.08224025     -0.32309111      0.01467082      0.00995374      0.00664156
 H     -0.01855310      0.04371078      0.40110149     -0.00208792      0.00536093      0.00284390
    2
 MD step:        3450 time   8.3451509264422494     
 H      0.12381389      0.08344467     -0.32229995      0.01470665      0.00996356      0.00642004
 H     -0.01880769      0.04435858      0.40145754     -0.00212375      0.00535111      0.00306541
    2
 MD step:        3500 time   8.4660951427675002     
 H      0.12559520      0.08465042     -0.32154112      0.01475002      0.00997545      0.00614631
 H     -0.01906717      0.04500505      0.40184592     -0.00216712      0.00533923      0.00333915
    2
 MD step:        3550 time   8.5870393590927510     
 H      0.12738146      0.08585753     -0.32080984      0.01478732      0.00998567      0.00594565
 H     -0.01933160      0.04565016      0.40226185     -0.00220442      0.00532900      0.00353981
    2
 MD step:        3600 time   8.7079835754179999     
 H      0.12917191      0.08706579     -0.32010325      0.01482155      0.00999505      0.00572809
 H     -0.01960023      0.04629412      0.40270248     -0.00223865      0.00531962      0.00375737
    2
 MD step:        3650 time   8.8289277917432507     
 H      0.13096688      0.08827529     -0.31942433      0.01486118      0.01000591      0.00551128
 H     -0.01987336      0.04693684      0.40317076     -0.00227828      0.00530876      0.00397418
    2
 MD step:        3700 time   8.9498720080684997     
 H      0.13276648      0.08948606     -0.31877052      0.01489644      0.01001557      0.00529918
 H     -0.02015114      0.04757830      0.40366417     -0.00231354      0.00529910      0.00418628
    2
 MD step:        3750 time   9.0708162243937505     
 H      0.13456977      0.09069783     -0.31814002      0.01492381      0.01002307      0.00513037
 H     -0.02043260      0.04821874      0.40418088     -0.00234091      0.00529160      0.00435509
    2
 MD step:        3800 time   9.1917604407189994     
 H      0.13637653      0.09191057     -0.31752862      0.01495465      0.01003153      0.00497568
 H     -0.02071753      0.04885823      0.40471669     -0.00237175      0.00528315      0.00450978
    2
 MD step:        3850 time   9.3127046570442502     
 H      0.13818705      0.09312432     -0.31693948      0.01498297      0.01003929      0.00477591
 H     -0.02100622      0.04949669      0.40527476     -0.00240007      0.00527539      0.00470955
    2
 MD step:        3900 time   9.4336488733695010     
 H      0.14000016      0.09433879     -0.31636789      0.01499884      0.01004363      0.00468676
 H     -0.02129750      0.05013445      0.40585038     -0.00241594      0.00527104      0.00479869
    2
 MD step:        3950 time   9.5545930896947500     
 H      0.14181515      0.09555378     -0.31580582      0.01501600      0.01004834      0.00458820
 H     -0.02159066      0.05077168      0.40643553     -0.00243311      0.00526633      0.00489726
    2
 MD step:        4000 time   9.6755373060200007     
 H      0.14363237      0.09676937     -0.31526110      0.01503237      0.01005283      0.00444220
 H     -0.02188605      0.05140831      0.40703801     -0.00244947      0.00526185      0.00504325
    2
 MD step:        4050 time   9.7964815223452497     
 H      0.14545062      0.09798525     -0.31472486      0.01503363      0.01005317      0.00443376
 H     -0.02218248      0.05204465      0.40764899     -0.00245073      0.00526150      0.00505170
    2
 MD step:        4100 time   9.9174257386705005     
 H      0.14726876      0.09920110     -0.31418986      0.01503351      0.01005314      0.00439051
 H     -0.02247879      0.05268102      0.40826119     -0.00245061      0.00526153      0.00509495
    2
 MD step:        4150 time   10.038369954995749     
 H      0.14908709      0.10041700     -0.31366372      0.01503342      0.01005311      0.00433742
 H     -0.02277529      0.05331734      0.40888227     -0.00245052      0.00526156      0.00514804
    2
 MD step:        4200 time   10.159314171321000     
 H      0.15090453      0.10163266     -0.31313630      0.01501862      0.01004906      0.00438696
 H     -0.02307090      0.05395391      0.40950206     -0.00243572      0.00526562      0.00509850
    2
 MD step:        4250 time   10.280258387646251     
 H      0.15271967      0.10284768     -0.31260318      0.01499830      0.01004349      0.00441634
 H     -0.02336421      0.05459111      0.41011615     -0.00241540      0.00527118      0.00506911
    2
 MD step:        4300 time   10.401202603971500     
 H      0.15453252      0.10406208     -0.31206690      0.01497906      0.01003821      0.00446905
 H     -0.02365523      0.05522893      0.41072708     -0.00239616      0.00527646      0.00501641
    2
 MD step:        4350 time   10.522146820296751     
 H      0.15634245      0.10527568     -0.31152158      0.01494843      0.01002982      0.00455096
 H     -0.02394334      0.05586755      0.41132898     -0.00236553      0.00528485      0.00493450
    2
 MD step:        4400 time   10.643091036622000     
 H      0.15814789      0.10648804     -0.31096393      0.01490719      0.01001852      0.00467251
 H     -0.02422694      0.05650741      0.41191854     -0.00232429      0.00529615      0.00481295
    2
 MD step:        4450 time   10.764035252947250     
 H      0.15994841      0.10769906     -0.31038996      0.01486752      0.01000765      0.00481608
 H     -0.02450563      0.05714861      0.41249178     -0.00228463      0.00530702      0.00466938
    2
 MD step:        4500 time   10.884979469272501     
 H      0.16174395      0.10890872     -0.30980158      0.01482201      0.00999517      0.00492374
 H     -0.02477935      0.05779117      0.41305061     -0.00223911      0.00531950      0.00456172
    2
 MD step:        4550 time   11.005923685597750     
 H      0.16353300      0.11011659     -0.30919372      0.01476167      0.00997864      0.00513804
 H     -0.02504657      0.05843552      0.41358997     -0.00217877      0.00533603      0.00434742
    2
 MD step:        4600 time   11.126867901923001     
 H      0.16531470      0.11132245     -0.30855887      0.01470283      0.00996251      0.00534018
 H     -0.02530643      0.05908188      0.41410233     -0.00211993      0.00535216      0.00414528
    2
 MD step:        4650 time   11.247812118248250     
 H      0.16708948      0.11252642     -0.30790531      0.01464369      0.00994630      0.00548770
 H     -0.02555938      0.05973014      0.41459597     -0.00206079      0.00536837      0.00399776
    2
 MD step:        4700 time   11.368756334573501     
 H      0.16885612      0.11372815     -0.30722536      0.01456884      0.00992579      0.00576350
 H     -0.02580420      0.06038062      0.41506323     -0.00198594      0.00538888      0.00372196
    2
 MD step:        4750 time   11.489700550898750     
 H      0.17061347      0.11492734     -0.30651259      0.01449340      0.00990512      0.00600011
 H     -0.02603972      0.06103365      0.41549768     -0.00191050      0.00540956      0.00348535
    2
 MD step:        4800 time   11.610644767224001     
 H      0.17236214      0.11612415     -0.30577592      0.01442250      0.00988569      0.00620372
 H     -0.02626656      0.06168907      0.41590822     -0.00183960      0.00542898      0.00328174
    2
 MD step:        4850 time   11.731588983549251     
 H      0.17410157      0.11731843     -0.30500836      0.01433978      0.00986302      0.00648833
 H     -0.02648416      0.06234701      0.41628787     -0.00175688      0.00545165      0.00299713
    2
 MD step:        4900 time   11.852533199874500     
 H      0.17583054      0.11850984     -0.30420716      0.01425265      0.00983914      0.00674886
 H     -0.02669130      0.06300782      0.41663388     -0.00166975      0.00547553      0.00273660
    2
 MD step:        4950 time   11.973477416199751     
 H      0.17754945      0.11969849     -0.30337602      0.01417260      0.00981720      0.00700630
 H     -0.02688838      0.06367139      0.41694995     -0.00158971      0.00549747      0.00247916
    2
 MD step:        5000 time   12.094421632525000     
 H      0.17925857      0.12088446     -0.30251333      0.01408877      0.00979423      0.00725448
 H     -0.02707567      0.06433764      0.41723447     -0.00150587      0.00552045      0.00223098
    2
 MD step:        5050 time   12.215365848850251     
 H      0.18095693      0.12206749     -0.30161919      0.01399650      0.00976894      0.00753495
 H     -0.02725221      0.06500684      0.41748755     -0.00141360      0.00554573      0.00195051
    2
 MD step:        5100 time   12.336310065175500     
 H      0.18264450      0.12324755     -0.30069047      0.01391199      0.00974578      0.00781513
 H     -0.02741794      0.06567900      0.41770604     -0.00132909      0.00556889      0.00167033
    2
 MD step:        5150 time   12.457254281500751     
 H      0.18432234      0.12442495     -0.29973344      0.01383283      0.00972408      0.00801015
 H     -0.02757396      0.06635382      0.41789622     -0.00124993      0.00559059      0.00147531
    2
 MD step:        5200 time   12.578198497826001     
 H      0.18598998      0.12559955     -0.29874812      0.01374347      0.00969960      0.00829393
 H     -0.02771977      0.06703144      0.41805811     -0.00116057      0.00561508      0.00119153
    2
 MD step:        5250 time   12.699142714151250     
 H      0.18764698      0.12677124     -0.29772801      0.01366038      0.00967682      0.00855392
 H     -0.02785494      0.06771197      0.41818521     -0.00107748      0.00563785      0.00093154
    2
 MD step:        5300 time   12.820086930476501     
 H      0.18929486      0.12794043     -0.29668460      0.01359005      0.00965755      0.00870790
 H     -0.02798099      0.06839500      0.41828902     -0.00100715      0.00565712      0.00077756
    2
 MD step:        5350 time   12.941031146801750     
 H      0.19093386      0.12910718     -0.29561662      0.01351221      0.00963622      0.00895758
 H     -0.02809816      0.06908047      0.41836825     -0.00092931      0.00567846      0.00052787
    2
 MD step:        5400 time   13.061975363127001     
 H      0.19256341      0.13027134     -0.29451957      0.01343777      0.00961582      0.00916260
 H     -0.02820589      0.06976853      0.41841841     -0.00085487      0.00569885      0.00032286
    2
 MD step:        5450 time   13.182919579452250     
 H      0.19418503      0.13143333     -0.29340411      0.01337946      0.00959984      0.00929423
 H     -0.02830568      0.07045876      0.41845015     -0.00079656      0.00571484      0.00019123
    2
 MD step:        5500 time   13.303863795777501     
 H      0.19579968      0.13259341     -0.29226932      0.01332052      0.00958368      0.00946451
 H     -0.02839849      0.07115090      0.41846258     -0.00073762      0.00573099      0.00002095
    2
 MD step:        5550 time   13.424808012102751     
 H      0.19740704      0.13375150     -0.29111568      0.01326144      0.00956749      0.00960387
 H     -0.02848402      0.07184504      0.41845615     -0.00067854      0.00574718     -0.00011841
    2
 MD step:        5600 time   13.545752228428000     
 H      0.19900819      0.13490788     -0.28994774      0.01321856      0.00955574      0.00971340
 H     -0.02856334      0.07254088      0.41843542     -0.00063566      0.00575893     -0.00022794
    2
 MD step:        5650 time   13.666696444753251     
 H      0.20060480      0.13606301     -0.28876859      0.01318392      0.00954625      0.00977298
 H     -0.02863813      0.07323796      0.41840348     -0.00060102      0.00576842     -0.00028752
    2
 MD step:        5700 time   13.787640661078500     
 H      0.20219698      0.13721694     -0.28758214      0.01314587      0.00953582      0.00985200
 H     -0.02870848      0.07393626      0.41836425     -0.00056297      0.00577885     -0.00036654
    2
 MD step:        5750 time   13.908584877403751     
 H      0.20378523      0.13836978     -0.28638600      0.01312167      0.00952919      0.00991752
 H     -0.02877490      0.07463563      0.41831532     -0.00053877      0.00578548     -0.00043206
    2
 MD step:        5800 time   14.029529093729000     
 H      0.20537168      0.13952214     -0.28518905      0.01311342      0.00952693      0.00986820