    2
 MD step:           0 time   0.0000000000000000     
 H      0.00000000      0.00000000     -0.37000000      0.00539433      0.00398503     -0.01847755
 H      0.00000000      0.00000000      0.37000000      0.02169700      0.02604681     -0.04759687
    2
 MD step:          50 time  0.12094421632525000     
 H      0.00064907      0.00047861     -0.37225130      0.00528935      0.00387988     -0.01882237
 H      0.00262747      0.00315356      0.36425998      0.02180198      0.02615195     -0.04725205
    2
 MD step:         100 time  0.24188843265050000     
 H      0.00128635      0.00094539     -0.37456546      0.00531988      0.00390947     -0.01954754
 H      0.00526673      0.00631897      0.35858282      0.02177144      0.02612236     -0.04652688
    2
 MD step:         150 time  0.36283264897575002     
 H      0.00192927      0.00141762     -0.37698549      0.00531978      0.00390763     -0.02038323
 H      0.00790035      0.00947891      0.35301153      0.02177155      0.02612421     -0.04569118
    2
 MD step:         200 time  0.48377686530100000     
 H      0.00257577      0.00189320     -0.37949039      0.00533797      0.00392353     -0.02105396
 H      0.01053039      0.01263551      0.34752512      0.02175336      0.02610831     -0.04502046
    2
 MD step:         250 time  0.60472108162625005     
 H      0.00321866      0.00236478     -0.38209936      0.00524057      0.00382175     -0.02218577
 H      0.01316404      0.01579611      0.34214276      0.02185076      0.02621008     -0.04388865
    2
 MD step:         300 time  0.72566529795150003     
 H      0.00384930      0.00282346     -0.38485739      0.00528037      0.00385525     -0.02343118
 H      0.01580994      0.01896961      0.33690948      0.02181096      0.02617659     -0.04264324
    2
 MD step:         350 time  0.84660951427675002     
 H      0.00449097      0.00329234     -0.38776478      0.00530259      0.00387055     -0.02458676
 H      0.01844481      0.02213290      0.33182555      0.02178874      0.02616129     -0.04148766
    2
 MD step:         400 time  0.96755373060200001     
 H      0.00512407      0.00375174     -0.39081141      0.00515408      0.00371301     -0.02583226
 H      0.02108825      0.02530568      0.32688087      0.02193725      0.02631883     -0.04024216
    2
 MD step:         450 time   1.0884979469272500     
 H      0.00574932      0.00420196     -0.39403501      0.00515345      0.00369976     -0.02752420
 H      0.02373954      0.02848764      0.32211315      0.02193788      0.02633208     -0.03855021
    2
 MD step:         500 time   1.2094421632525001     
 H      0.00637086      0.00464690     -0.39745161      0.00516517      0.00369859     -0.02892688
 H      0.02639453      0.03167487      0.31753843      0.02192616      0.02633325     -0.03714753
    2
 MD step:         550 time   1.3303863795777500     
 H      0.00699283      0.00509067     -0.40103065      0.00511586      0.00363520     -0.03030514
 H      0.02904911      0.03486328      0.31312615      0.02197547      0.02639664     -0.03576927
    2
 MD step:         600 time   1.4513305959030001     
 H      0.00759892      0.00551662     -0.40480137      0.00491674      0.00341770     -0.03203806
 H      0.03171955      0.03806951      0.30890555      0.02217459      0.02661414     -0.03403636
    2
 MD step:         650 time   1.5722748122282502     
 H      0.00820027      0.00593550     -0.40877641      0.00500040      0.00348249     -0.03366683
 H      0.03439475      0.04128280      0.30488927      0.02209093      0.02654935     -0.03240759
    2
 MD step:         700 time   1.6932190285535000     
 H      0.00880122      0.00635181     -0.41292964      0.00490277      0.00336680     -0.03503559
 H      0.03707033      0.04449867      0.30105118      0.02218856      0.02666504     -0.03103882
    2
 MD step:         750 time   1.8141632448787501     
 H      0.00938377      0.00674734     -0.41725580      0.00480034      0.00324284     -0.03657781
 H      0.03976432      0.04773532      0.29738602      0.02229099      0.02678900     -0.02949661
    2
 MD step:         800 time   1.9351074612040000     
 H      0.00995910      0.00713289     -0.42178445      0.00471072      0.00313044     -0.03820290
 H      0.04246553      0.05098195      0.29392335      0.02238060      0.02690140     -0.02787152
    2
 MD step:         850 time   2.0560516775292501     
 H      0.01053056      0.00751204     -0.42647740      0.00470522      0.00310566     -0.03937320
 H      0.04517061      0.05423497      0.29062499      0.02238611      0.02692618     -0.02670122
    2
 MD step:         900 time   2.1769958938545000     
 H      0.01109393      0.00788071     -0.43131516      0.00456098      0.00294005     -0.04070457
 H      0.04788378      0.05749848      0.28747143      0.02253035      0.02709179     -0.02536984
    2
 MD step:         950 time   2.2979401101797499     
 H      0.01163529      0.00822464     -0.43631778      0.00449541      0.00285200     -0.04198991
 H      0.05061896      0.06078672      0.28448273      0.02259592      0.02717984     -0.02408450
    2
 MD step:        1000 time   2.4188843265050002     
 H      0.01218082      0.00857026     -0.44146294      0.00449564      0.00283447     -0.04298753
 H      0.05334997      0.06407328      0.28163657      0.02259569      0.02719737     -0.02308689
    2
 MD step:        1050 time   2.5398285428302501     
 H      0.01271675      0.00890436     -0.44670883      0.00433625      0.00265943     -0.04375776
 H      0.05609058      0.06737137      0.27889114      0.02275507      0.02737241     -0.02231665
    2
 MD step:        1100 time   2.6607727591554999     
 H      0.01323932      0.00922301     -0.45205910      0.00428868      0.00259355     -0.04476807
 H      0.05884455      0.07068489      0.27625010      0.02280265      0.02743829     -0.02130634
    2
 MD step:        1150 time   2.7817169754807503     
 H      0.01375181      0.00952960     -0.45751859      0.00425856      0.00255033     -0.04540609
 H      0.06160860      0.07401047      0.27371827      0.02283277      0.02748150     -0.02066832
    2
 MD step:        1200 time   2.9026611918060001     
 H      0.01426906      0.00983981     -0.46303065      0.00427253      0.00255782     -0.04570150
 H      0.06436789      0.07733244      0.27123901      0.02281880      0.02747402     -0.02037291
    2
 MD step:        1250 time   3.0236054081312500     
 H      0.01477639      0.01013934     -0.46858117      0.00407328      0.00235137     -0.04608392
 H      0.06713710      0.08066509      0.26879821      0.02301805      0.02768047     -0.01999049
    2
 MD step:        1300 time   3.1445496244565003     
 H      0.01527056      0.01042480     -0.47417682      0.00413398      0.00240561     -0.04645818
 H      0.06991947      0.08401181      0.26640254      0.02295735      0.02762623     -0.01961624
    2
 MD step:        1350 time   3.2654938407817502     
 H      0.01576945      0.01071471     -0.47979960      0.00413792      0.00241240     -0.04640855
 H      0.07269712      0.08735408      0.26403400      0.02295341      0.02761944     -0.01966587
    2
 MD step:        1400 time   3.3864380571070001     
 H      0.01626977      0.01100683     -0.48539327      0.00413178      0.00241480     -0.04607496
 H      0.07547334      0.09069413      0.26163635      0.02295955      0.02761704     -0.01999945
    2
 MD step:        1450 time   3.5073822734322500     
 H      0.01676664      0.01129647     -0.49095904      0.00402092      0.00231075     -0.04598415
 H      0.07825300      0.09403667      0.25921081      0.02307040      0.02772109     -0.02009026
    2
 MD step:        1500 time   3.6283264897575003     
 H      0.01725250      0.01157600     -0.49650504      0.00410159      0.00240157     -0.04569638
 H      0.08104369      0.09738932      0.25676549      0.02298974      0.02763027     -0.02037804
    2
 MD step:        1550 time   3.7492707060827501     
 H      0.01775450      0.01187355     -0.50200006      0.00418238      0.00250334     -0.04507415
 H      0.08381822      0.10072395      0.25426918      0.02290895      0.02752850     -0.02100027
    2
 MD step:        1600 time   3.8702149224080000     
 H      0.01826022      0.01217776     -0.50740027      0.00416428      0.00251125     -0.04421094
 H      0.08658905      0.10405192      0.25167808      0.02292705      0.02752059     -0.02186348
    2
 MD step:        1650 time   3.9911591387332503     
 H      0.01876766      0.01248674     -0.51270600      0.00418861      0.00255944     -0.04359746
 H      0.08935814      0.10737511      0.24899249      0.02290272      0.02747240     -0.02247696
    2
 MD step:        1700 time   4.1121033550585002     
 H      0.01926947      0.01279303     -0.51793729      0.00420677      0.00260429     -0.04283877
 H      0.09213287      0.11070100      0.24623246      0.02288456      0.02742755     -0.02323564
    2
 MD step:        1750 time   4.2330475713837501     
 H      0.01979212      0.01312405     -0.52305929      0.00439557      0.00283103     -0.04179682
 H      0.09488677      0.11400216      0.24336314      0.02269576      0.02720081     -0.02427760
    2
 MD step:        1800 time   4.3539917877090000     
 H      0.02032783      0.01347318     -0.52803763      0.00442691      0.00290612     -0.04052771
 H      0.09762760      0.11728520      0.24035016      0.02266442      0.02712572     -0.02554671
    2
 MD step:        1850 time   4.4749360040342498     
 H      0.02086699      0.01383096     -0.53286620      0.00451856      0.00303890     -0.03941110
 H      0.10036497      0.12055960      0.23718742      0.02257277      0.02699294     -0.02666331
    2
 MD step:        1900 time   4.5958802203594997     
 H      0.02141008      0.01419752     -0.53757666      0.00448216      0.00304317     -0.03841476
 H      0.10309843      0.12382522      0.23390656      0.02260917      0.02698867     -0.02765966
    2
 MD step:        1950 time   4.7168244366847505     
 H      0.02196938      0.01458573     -0.54214601      0.00475524      0.00336686     -0.03712454
 H      0.10581566      0.12706918      0.23048459      0.02233609      0.02666498     -0.02894988
    2
 MD step:        2000 time   4.8377686530100004     
 H      0.02255345      0.01500541     -0.54654441      0.00488163      0.00355188     -0.03559992
 H      0.10850813      0.13028168      0.22689167      0.02220969      0.02647996     -0.03047449
    2
 MD step:        2050 time   4.9587128693352502     
 H      0.02314550      0.01544012     -0.55075788      0.00495098      0.00367776     -0.03411596
 H      0.11119262      0.13347915      0.22311382      0.02214034      0.02635408     -0.03195845
    2
 MD step:        2100 time   5.0796570856605001     
 H      0.02374962      0.01589338     -0.55481630      0.00497392      0.00375236     -0.03299674
 H      0.11386505      0.13665807      0.21918093      0.02211741      0.02627947     -0.03307768
    2
 MD step:        2150 time   5.2006013019857500     
 H      0.02436030      0.01635962     -0.55872655      0.00520198      0.00403706     -0.03163940
 H      0.11653090      0.13982400      0.21509985      0.02188935      0.02599478     -0.03443502
    2
 MD step:        2200 time   5.3215455183109999     
 H      0.02500335      0.01686572     -0.56246287      0.00540960      0.00431129     -0.03009130
 H      0.11916439      0.14295008      0.21084486      0.02168172      0.02572055     -0.03598311
    2
 MD step:        2250 time   5.4424897346362506     
 H      0.02566306      0.01739669     -0.56600433      0.00548617      0.00445485     -0.02847577
 H      0.12178122      0.14605129      0.20639500      0.02160516      0.02557699     -0.03759864
    2
 MD step:        2300 time   5.5634339509615005     
 H      0.02633667      0.01794921     -0.56936716      0.00561486      0.00464253     -0.02722813
 H      0.12438415      0.14913095      0.20176651      0.02147647      0.02538931     -0.03884629
    2
 MD step:        2350 time   5.6843781672867504     
 H      0.02701376      0.01851208     -0.57258878      0.00567159      0.00475580     -0.02599964
 H      0.12698360      0.15220025      0.19699681      0.02141974      0.02527604     -0.04007478
    2
 MD step:        2400 time   5.8053223836120003     
 H      0.02771908      0.01911051     -0.57565330      0.00594919      0.00509879     -0.02464487
 H      0.12955482      0.15523399      0.19207001      0.02114214      0.02493304     -0.04142955
    2
 MD step:        2450 time   5.9262665999372501     
 H      0.02844824      0.01974105     -0.57854121      0.00607957      0.00529839     -0.02312488
 H      0.13210220      0.15823563      0.18696661      0.02101176      0.02473345     -0.04294954
    2
 MD step:        2500 time   6.0472108162625000     
 H      0.02919009      0.02039225     -0.58125342      0.00621499      0.00549458     -0.02182922
 H      0.13463689      0.16121662      0.18168749      0.02087634      0.02453726     -0.04424520
    2
 MD step:        2550 time   6.1681550325877499     
 H      0.02993973      0.02105791     -0.58383813      0.00617154      0.00550241     -0.02088457
 H      0.13716379      0.16418313      0.17628089      0.02091979      0.02452943     -0.04518985
    2
 MD step:        2600 time   6.2890992489130007     
 H      0.03070235      0.02174286     -0.58629937      0.00644833      0.00583456     -0.01982126
 H      0.13967771      0.16713035      0.17075081      0.02064300      0.02419728     -0.04625315
    2
 MD step:        2650 time   6.4100434652382505     
 H      0.03149210      0.02246207     -0.58862420      0.00659788      0.00604520     -0.01860924
 H      0.14216450      0.17004332      0.16508432      0.02049345      0.02398664     -0.04746517
    2
 MD step:        2700 time   6.5309876815635004     
 H      0.03229198      0.02319845     -0.59080588      0.00665340      0.00615367     -0.01751513
 H      0.14464115      0.17293912      0.15927469      0.02043793      0.02387817     -0.04855928
    2
 MD step:        2750 time   6.6519318978887503     
 H      0.03310013      0.02394857     -0.59288713      0.00663801      0.00617662     -0.01694056
 H      0.14710955      0.17582118      0.15336461      0.02045332      0.02385522     -0.04913386
    2
 MD step:        2800 time   6.7728761142140002     
 H      0.03390688      0.02470168     -0.59489586      0.00678513      0.00636108     -0.01626505
 H      0.14957934      0.17870025      0.14738203      0.02030620      0.02367076     -0.04980937
    2
 MD step:        2850 time   6.8938203305392500     
 H      0.03473754      0.02548363     -0.59681919      0.00692756      0.00654640     -0.01551136
 H      0.15202521      0.18155048      0.14131404      0.02016377      0.02348544     -0.05056305
    2
 MD step:        2900 time   7.0147645468644999     
 H      0.03557318      0.02627533     -0.59865525      0.00687075      0.00652274     -0.01487823
 H      0.15446611      0.18439095      0.13515878      0.02022058      0.02350910     -0.05119619
    2
 MD step:        2950 time   7.1357087631897507     
 H      0.03640718      0.02706830     -0.60044050      0.00688006      0.00654755     -0.01474466
 H      0.15690866      0.18723016      0.12895271      0.02021127      0.02348428     -0.05132975
    2
 MD step:        3000 time   7.2566529795150005     
 H      0.03723312      0.02785468     -0.60221737      0.00686453      0.00654443     -0.01458074
 H      0.15935925      0.19007595      0.12273826      0.02022680      0.02348741     -0.05149367
    2
 MD step:        3050 time   7.3775971958402504     
 H      0.03807104      0.02865491     -0.60396585      0.00696163      0.00665806     -0.01432620
 H      0.16179787      0.19290790      0.11649542      0.02012970      0.02337377     -0.05174822
    2
 MD step:        3100 time   7.4985414121655003     
 H      0.03890579      0.02945324     -0.60569680      0.00677820      0.00647606     -0.01434659
 H      0.16423966      0.19574175      0.11023505      0.02031313      0.02355578     -0.05172783
    2
 MD step:        3150 time   7.6194856284907502     
 H      0.03972077      0.03023080     -0.60744934      0.00673101      0.00641255     -0.01473040
 H      0.16670122      0.19859637      0.10399628      0.02036032      0.02361929     -0.05134402
    2
 MD step:        3200 time   7.7404298448160000     
 H      0.04052622      0.03099662     -0.60925861      0.00662656      0.00629157     -0.01510361
 H      0.16917231      0.20146272      0.09781422      0.02046477      0.02374027     -0.05097081
    2
 MD step:        3250 time   7.8613740611412499     
 H      0.04132560      0.03175457     -0.61110001      0.00657088      0.00621903     -0.01536863
 H      0.17164948      0.20433695      0.09166430      0.02052045      0.02381281     -0.05070579
    2
 MD step:        3300 time   7.9823182774665007     
 H      0.04210779      0.03249205     -0.61300090      0.00628045      0.00588898     -0.01614097
 H      0.17414382      0.20723165      0.08557388      0.02081088      0.02414286     -0.04993344
    2
 MD step:        3350 time   8.1032624937917497     
 H      0.04285363      0.03318751     -0.61500430      0.00613773      0.00569669     -0.01701022
 H      0.17667452      0.21016836      0.07958596      0.02095360      0.02433515     -0.04906419
    2
 MD step:        3400 time   8.2242067101170004     
 H      0.04358816      0.03386592     -0.61711235      0.00599793      0.00551209     -0.01779641
 H      0.17921653      0.21312213      0.07370270      0.02109340      0.02451975     -0.04827800
    2
 MD step:        3450 time   8.3451509264422494     
 H      0.04429486      0.03451063     -0.61931523      0.00567670      0.00513351     -0.01867059
 H      0.18178637      0.21610960      0.06791425      0.02141463      0.02489833     -0.04740383
    2
 MD step:        3500 time   8.4660951427675002     
 H      0.04496593      0.03511133     -0.62165419      0.00536369      0.00474191     -0.02005881
 H      0.18439183      0.21914107      0.06226190      0.02172764      0.02528993     -0.04601560
    2
 MD step:        3550 time   8.5870393590927510     
 H      0.04559765      0.03566336     -0.62415106      0.00514438      0.00445046     -0.02118811
 H      0.18703666      0.22222123      0.05676745      0.02194695      0.02558138     -0.04488630
    2
 MD step:        3600 time   8.7079835754179999     
 H      0.04620653      0.03618403     -0.62677798      0.00490296      0.00413570     -0.02229942
 H      0.18970431      0.22533273      0.05140305      0.02218837      0.02589614     -0.04377500
    2
 MD step:        3650 time   8.8289277917432507     
 H      0.04676691      0.03664598     -0.62956404      0.00437271      0.00350972     -0.02377211
 H      0.19242048      0.22850296      0.04619779      0.02271862      0.02652212     -0.04230231
    2
 MD step:        3700 time   8.9498720080684997     
 H      0.04728280      0.03705166     -0.63253115      0.00413932      0.00318195     -0.02527579
 H      0.19518113      0.23172946      0.04117358      0.02295201      0.02684989     -0.04079863
    2
 MD step:        3750 time   9.0708162243937505     
 H      0.04776558      0.03741364     -0.63566126      0.00381272      0.00277116     -0.02649170
 H      0.19797489      0.23499966      0.03631238      0.02327861      0.02726068     -0.03958271
    2
 MD step:        3800 time   9.1917604407189994     
 H      0.04820093      0.03771721     -0.63894479      0.00342298      0.00228186     -0.02790360
 H      0.20081608      0.23832826      0.03160458      0.02366835      0.02774998     -0.03817082
    2
 MD step:        3850 time   9.3127046570442502     
 H      0.04858505      0.03795681     -0.64242196      0.00295094      0.00170476     -0.02950207
 H      0.20370850      0.24172084      0.02709044      0.02414039      0.02832708     -0.03657235
    2
 MD step:        3900 time   9.4336488733695010     
 H      0.04892960      0.03814540     -0.64606323      0.00272870      0.00139710     -0.03068159
 H      0.20664048      0.24516443      0.02274039      0.02436263      0.02863474     -0.03539282
    2
 MD step:        3950 time   9.5545930896947500     
 H      0.04923862      0.03828797     -0.64984924      0.00229694      0.00087233     -0.03200465
 H      0.20960801      0.24865403      0.01853508      0.02479439      0.02915951     -0.03406977
    2
 MD step:        4000 time   9.6755373060200007     
 H      0.04948624      0.03835718     -0.65380240      0.00190625      0.00038241     -0.03336666
 H      0.21263693      0.25221700      0.01449693      0.02518508      0.02964942     -0.03270775
    2
 MD step:        4050 time   9.7964815223452497     
 H      0.04970120      0.03838279     -0.65791331      0.00164600      0.00004341     -0.03450542
 H      0.21569851      0.25582357      0.01061651      0.02544533      0.02998843     -0.03156900
    2
 MD step:        4100 time   9.9174257386705005     
 H      0.04988074      0.03836433     -0.66213989      0.00129676     -0.00037645     -0.03538352
 H      0.21879551      0.25947421      0.00685178      0.02579457      0.03040829     -0.03069089
    2
 MD step:        4150 time   10.038369954995749     
 H      0.05001936      0.03829562     -0.66648791      0.00094549     -0.00081019     -0.03657678
 H      0.22193343      0.26317510      0.00320848      0.02614584      0.03084203     -0.02949764
    2
 MD step:        4200 time   10.159314171321000     
 H      0.05011191      0.03817165     -0.67096830      0.00068800     -0.00113067     -0.03741802
 H      0.22511741      0.26693124     -0.00030245      0.02640333      0.03116251     -0.02865639
    2
 MD step:        4250 time   10.280258387646251     
 H      0.05018901      0.03802624     -0.67552758      0.00057375     -0.00128518     -0.03794373
 H      0.22831685      0.27070883     -0.00373449      0.02651758      0.03131702     -0.02813069
    2
 MD step:        4300 time   10.401202603971500     
 H      0.05023645      0.03784608     -0.68015481      0.00017349     -0.00173282     -0.03856325
 H      0.23154595      0.27452116     -0.00709858      0.02691784      0.03176466     -0.02751117
    2
 MD step:        4350 time   10.522146820296751     
 H      0.05024862      0.03762485     -0.68485761      0.00004337     -0.00190602     -0.03921546
 H      0.23481032      0.27837457     -0.01038710      0.02704796      0.03193786     -0.02685896
    2
 MD step:        4400 time   10.643091036622000     
 H      0.05024527      0.03738469     -0.68961850     -0.00005405     -0.00201495     -0.03941013
 H      0.23809022      0.28224691     -0.01361753      0.02714538      0.03204679     -0.02666429
    2
 MD step:        4450 time   10.764035252947250     
 H      0.05023538      0.03713769     -0.69438224     -0.00009897     -0.00205941     -0.03937249
 H      0.24137664      0.28612609     -0.01684511      0.02719030      0.03209125     -0.02670192
    2
 MD step:        4500 time   10.884979469272501     
 H      0.05021147      0.03687613     -0.69915956     -0.00036315     -0.00233281     -0.03961558
 H      0.24467709      0.29001982     -0.02005910      0.02745448      0.03236465     -0.02645884
    2
 MD step:        4550 time   11.005923685597750     
 H      0.05016558      0.03659216     -0.70395111     -0.00031627     -0.00227763     -0.03959229
 H      0.24799952      0.29393598     -0.02325887      0.02740760      0.03230947     -0.02648213
    2
 MD step:        4600 time   11.126867901923001     
 H      0.05013296      0.03632447     -0.70872147     -0.00022343     -0.00214499     -0.03921635
 H      0.25130868      0.29783584     -0.02647983      0.02731476      0.03217683     -0.02685807
    2
 MD step:        4650 time   11.247812118248250     
 H      0.05010528      0.03606710     -0.71343225     -0.00022247     -0.00210003     -0.03867636
 H      0.25461290      0.30172539     -0.02976037      0.02731380      0.03213187     -0.02739806
    2
 MD step:        4700 time   11.368756334573501     
 H      0.05008180      0.03581867     -0.71809434     -0.00023903     -0.00208109     -0.03845106
 H      0.25791292      0.30560600     -0.03308960      0.02733036      0.03211293     -0.02762336
    2
 MD step:        4750 time   11.489700550898750     
 H      0.05005251      0.03556951     -0.72271547     -0.00012791     -0.00191531     -0.03789529
 H      0.26121875      0.30948733     -0.03645978      0.02721924      0.03194715     -0.02817912
    2
 MD step:        4800 time   11.610644767224001     
 H      0.05005612      0.03536187     -0.72725091      0.00017057     -0.00153146     -0.03704998
 H      0.26449168      0.31332714     -0.03991566      0.02692076      0.03156330     -0.02902443
    2
 MD step:        4850 time   11.731588983549251     
 H      0.05008450      0.03518979     -0.73167530      0.00026422     -0.00135035     -0.03610223
 H      0.26773984      0.31713140     -0.04348259      0.02682711      0.03138219     -0.02997219
    2
 MD step:        4900 time   11.852533199874500     
 H      0.05012931      0.03504402     -0.73599305      0.00046425     -0.00107357     -0.03538650
 H      0.27097157      0.32090935     -0.04715616      0.02662707      0.03110541     -0.03068791
    2
 MD step:        4950 time   11.973477416199751     
 H      0.05018691      0.03492071     -0.74022813      0.00056814     -0.00088110     -0.03454732
 H      0.27419050      0.32466484     -0.05091240      0.02652319      0.03091294     -0.03152710
    2
 MD step:        5000 time   12.094421632525000     
 H      0.05028430      0.03484983     -0.74433749      0.00103029     -0.00029931     -0.03337599
 H      0.27736966      0.32836789     -0.05479436      0.02606104      0.03033115     -0.03269843
    2
 MD step:        5050 time   12.215365848850251     
 H      0.05042952      0.03484200     -0.74829702      0.00130908      0.00010558     -0.03211467
 H      0.28050098      0.33200790     -0.05882615      0.02578224      0.02992626     -0.03395974
    2
 MD step:        5100 time   12.336310065175500     
 H      0.05060115      0.03487502     -0.75210654      0.00158490      0.00049306     -0.03096127
 H      0.28360589      0.33560706     -0.06300795      0.02550643      0.02953878     -0.03511314
    2
 MD step:        5150 time   12.457254281500751     
 H      0.05080354      0.03495190     -0.75579875      0.00172885      0.00074711     -0.03003178
 H      0.28668004      0.33916236     -0.06730705      0.02536248      0.02928473     -0.03604264
    2
 MD step:        5200 time   12.578198497826001     
 H      0.05103998      0.03507754     -0.75935299      0.00223317      0.00138762     -0.02872017
 H      0.28972013      0.34266890     -0.07174413      0.02485815      0.02864422     -0.03735424
    2
 MD step:        5250 time   12.699142714151250     
 H      0.05134023      0.03528474     -0.76273955      0.00269935      0.00200636     -0.02727458
 H      0.29269642      0.34609387     -0.07634889      0.02439198      0.02802548     -0.03879983
    2
 MD step:        5300 time   12.820086930476501     
 H      0.05168223      0.03555155     -0.76595166      0.00298282      0.00242940     -0.02585400
 H      0.29563096      0.34945924     -0.08112810      0.02410851      0.02760243     -0.04022042
    2
 MD step:        5350 time   12.941031146801750     
 H      0.05206536      0.03587518     -0.76901490      0.00327221      0.00284151     -0.02484387
 H      0.29852438      0.35276779     -0.08605618      0.02381912      0.02719033     -0.04123055
    2
 MD step:        5400 time   13.061975363127001     
 H      0.05247507      0.03624058     -0.77194749      0.00362119      0.00332418     -0.02359629
 H      0.30139121      0.35603456     -0.09111491      0.02347014      0.02670766     -0.04247813
    2
 MD step:        5450 time   13.182919579452250     
 H      0.05294865      0.03668765     -0.77471853      0.00418383      0.00404474     -0.02219352
 H      0.30419416      0.35921967     -0.09633519      0.02290750      0.02598710     -0.04388089
    2
 MD step:        5500 time   13.303863795777501     
 H      0.05347865      0.03721037     -0.77731377      0.00453969      0.00455513     -0.02072609
 H      0.30694070      0.36232913     -0.10173127      0.02255164      0.02547671     -0.04534833
    2
 MD step:        5550 time   13.424808012102751     
 H      0.05405202      0.03779373     -0.77974297      0.00492886      0.00507390     -0.01956631
 H      0.30964387      0.36537795     -0.10729338      0.02216247      0.02495794     -0.04650811
    2
 MD step:        5600 time   13.545752228428000     
 H      0.05465437      0.03842085     -0.78205212      0.00507356      0.00533898     -0.01855401
 H      0.31231806      0.36838300     -0.11297555      0.02201777      0.02469286     -0.04752041
    2
 MD step:        5650 time   13.666696444753251     
 H      0.05530171      0.03910863     -0.78422426      0.00562833      0.00603494     -0.01736159
 H      0.31494726      0.37132740     -0.11879473      0.02146300      0.02399690     -0.04871282
    2
 MD step:        5700 time   13.787640661078500     
 H      0.05600989      0.03987515     -0.78624431      0.00604661      0.00660293     -0.01604255
 H      0.31751562      0.37419306     -0.12476599      0.02104472      0.02342891     -0.05003186
    2
 MD step:        5750 time   13.908584877403751     
 H      0.05675963      0.04070015     -0.78810811      0.00638395      0.00706649     -0.01485293
 H      0.32004242      0.37700024     -0.13089352      0.02070738      0.02296535     -0.05122149
    2
 MD step:        5800 time   14.029529093729000     
 H      0.05754235      0.04157154     -0.78986164      0.00648198      0.00726419     -0.01413677