    2
 MD step:           0 time   0.0000000000000000     
 H      0.00000000      0.00000000     -0.37000000     -0.00082777     -0.02635636      0.00075303
 H      0.00000000      0.00000000      0.37000000      0.01407427      0.02321269     -0.00119361
    2
 MD step:          50 time  0.12094421632525000     
 H     -0.00010160     -0.00318768     -0.36991889     -0.00088321     -0.02635719      0.00052599
 H      0.00170369      0.00280747      0.36986561      0.01412972      0.02321351     -0.00096657
    2
 MD step:         100 time  0.24188843265050000     
 H     -0.00021279     -0.00637569     -0.36988264     -0.00094597     -0.02636293      0.00001566
 H      0.00341697      0.00561527      0.36977607      0.01419248      0.02321925     -0.00045623
    2
 MD step:         150 time  0.36283264897575002     
 H     -0.00034197     -0.00956493     -0.36993709     -0.00113285     -0.02637801     -0.00090212
 H      0.00514824      0.00842430      0.36977723      0.01437936      0.02323433      0.00046154
    2
 MD step:         200 time  0.48377686530100000     
 H     -0.00049108     -0.01275648     -0.37010575     -0.00136058     -0.02639960     -0.00188792
 H      0.00689943      0.01123564      0.36989261      0.01460708      0.02325592      0.00144734
    2
 MD step:         250 time  0.60472108162625005     
 H     -0.00065919     -0.01595056     -0.37037185     -0.00146200     -0.02641755     -0.00248397
 H      0.00866964      0.01404951      0.37010543      0.01470851      0.02327387      0.00204339
    2
 MD step:         300 time  0.72566529795150003     
 H     -0.00084052     -0.01914615     -0.37068929     -0.00150696     -0.02642444     -0.00268611
 H      0.01045305      0.01686489      0.37036958      0.01475346      0.02328077      0.00224553
    2
 MD step:         350 time  0.84660951427675002     
 H     -0.00102648     -0.02234211     -0.37101928     -0.00157901     -0.02642608     -0.00278828
 H      0.01224109      0.01968064      0.37064629      0.01482552      0.02328240      0.00234770
    2
 MD step:         400 time  0.96755373060200001     
 H     -0.00121917     -0.02553874     -0.37136718     -0.00164183     -0.02643877     -0.00305257
 H      0.01403588      0.02249706      0.37094090      0.01488834      0.02329510      0.00261199
    2
 MD step:         450 time   1.0884979469272500     
 H     -0.00142922     -0.02873808     -0.37177286     -0.00177839     -0.02647195     -0.00365791
 H      0.01584802      0.02531620      0.37129329      0.01502490      0.02332827      0.00321733
    2
 MD step:         500 time   1.2094421632525001     
 H     -0.00166117     -0.03194230     -0.37226563     -0.00202807     -0.02651545     -0.00446051
 H      0.01768206      0.02814021      0.37173278      0.01527457      0.02337178      0.00401994
    2
 MD step:         550 time   1.3303863795777500     
 H     -0.00191385     -0.03515133     -0.37283759     -0.00220599     -0.02654567     -0.00498835
 H      0.01953683      0.03096902      0.37225145      0.01545250      0.02340199      0.00454777
    2
 MD step:         600 time   1.4513305959030001     
 H     -0.00218381     -0.03836217     -0.37344733     -0.00225785     -0.02654372     -0.00502298
 H      0.02140887      0.03379966      0.37280791      0.01550436      0.02340004      0.00458240
    2
 MD step:         650 time   1.5722748122282502     
 H     -0.00246210     -0.04157077     -0.37404348     -0.00231646     -0.02651215     -0.00477950
 H      0.02328925      0.03662805      0.37335077      0.01556296      0.02336847      0.00433892
    2
 MD step:         700 time   1.6932190285535000     
 H     -0.00274348     -0.04477499     -0.37460226     -0.00237688     -0.02647670     -0.00452429
 H      0.02517272      0.03945205      0.37385626      0.01562339      0.02333302      0.00408371
    2
 MD step:         750 time   1.8141632448787501     
 H     -0.00303550     -0.04797603     -0.37514420     -0.00244340     -0.02646425     -0.00448605
 H      0.02706682      0.04227288      0.37434491      0.01568990      0.02332058      0.00404547
    2
 MD step:         800 time   1.9351074612040000     
 H     -0.00334678     -0.05117722     -0.37570632     -0.00264379     -0.02647746     -0.00478698
 H      0.02898019      0.04509386      0.37485375      0.01589030      0.02333378      0.00434640
    2
 MD step:         850 time   2.0560516775292501     
 H     -0.00367934     -0.05438071     -0.37630692     -0.00289481     -0.02649305     -0.00515168
 H      0.03091484      0.04791715      0.37540107      0.01614131      0.02334937      0.00471110
    2
 MD step:         900 time   2.1769958938545000     
 H     -0.00403377     -0.05758463     -0.37693257     -0.00301526     -0.02647682     -0.00516408
 H      0.03287136      0.05074086      0.37597343      0.01626177      0.02333315      0.00472350
    2
 MD step:         950 time   2.2979401101797499     
 H     -0.00440506     -0.06078307     -0.37753930     -0.00307338     -0.02640337     -0.00475204
 H      0.03484474      0.05355909      0.37652688      0.01631988      0.02325969      0.00431146
    2
 MD step:        1000 time   2.4188843265050002     
 H     -0.00478132     -0.06396917     -0.37807419     -0.00313403     -0.02627765     -0.00404834
 H      0.03682309      0.05636497      0.37700848      0.01638053      0.02313397      0.00360776
    2
 MD step:        1050 time   2.5398285428302501     
 H     -0.00515860     -0.06713865     -0.37851165     -0.00313144     -0.02613574     -0.00322521
 H      0.03880245      0.05915425      0.37739266      0.01637794      0.02299206      0.00278463
    2
 MD step:        1100 time   2.6607727591554999     
 H     -0.00554272     -0.07029188     -0.37886416     -0.00317783     -0.02601502     -0.00260644
 H      0.04078866      0.06192727      0.37769188      0.01642434      0.02287135      0.00216586
    2
 MD step:        1150 time   2.7817169754807503     
 H     -0.00593838     -0.07343305     -0.37916321     -0.00337274     -0.02593238     -0.00236722
 H      0.04278641      0.06468823      0.37793764      0.01661924      0.02278871      0.00192664
    2
 MD step:        1200 time   2.9026611918060001     
 H     -0.00635182     -0.07656648     -0.37944023     -0.00355316     -0.02587844     -0.00227770
 H      0.04480194      0.06744145      0.37816138      0.01679966      0.02273477      0.00183712
    2
 MD step:        1250 time   3.0236054081312500     
 H     -0.00678987     -0.07969276     -0.37970674     -0.00366737     -0.02581259     -0.00207643
 H      0.04684208      0.07018752      0.37837461      0.01691388      0.02266892      0.00163585
    2
 MD step:        1300 time   3.1445496244565003     
 H     -0.00724739     -0.08280732     -0.37993791     -0.00381537     -0.02568446     -0.00163517
 H      0.04890168      0.07292187      0.37855249      0.01706187      0.02254078      0.00119459
    2
 MD step:        1350 time   3.2654938407817502     
 H     -0.00771239     -0.08590178     -0.38008620     -0.00389394     -0.02547567     -0.00079176
 H      0.05096877      0.07563612      0.37864749      0.01714045      0.02233199      0.00035119
    2
 MD step:        1400 time   3.3864380571070001     
 H     -0.00817937     -0.08896710     -0.38011036     -0.00383898     -0.02520593      0.00040908
 H      0.05303784      0.07832123      0.37861837      0.01708549      0.02206226     -0.00084965
    2
 MD step:        1450 time   3.5073822734322500     
 H     -0.00864471     -0.09199791     -0.37998903     -0.00382570     -0.02491391      0.00161738
 H      0.05510527      0.08097183      0.37844375      0.01707221      0.02177023     -0.00205795
    2
 MD step:        1500 time   3.6283264897575003     
 H     -0.00910680     -0.09499482     -0.37972819     -0.00387343     -0.02465041      0.00260921
 H      0.05716945      0.08358853      0.37812963      0.01711994      0.02150673     -0.00304979
    2
 MD step:        1550 time   3.7492707060827501     
 H     -0.00957514     -0.09796314     -0.37936270     -0.00390300     -0.02444919      0.00334610
 H      0.05923988      0.08617665      0.37771085      0.01714950      0.02130552     -0.00378667
    2
 MD step:        1600 time   3.8702149224080000     
 H     -0.01006023     -0.10090985     -0.37893304     -0.00404038     -0.02429557      0.00377411
 H      0.06132706      0.08874314      0.37722790      0.01728688      0.02115189     -0.00421469
    2
 MD step:        1650 time   3.9911591387332503     
 H     -0.01056289     -0.10383962     -0.37845977     -0.00427783     -0.02415013      0.00405280
 H      0.06343180      0.09129271      0.37670135      0.01752434      0.02100646     -0.00449338
    2
 MD step:        1700 time   4.1121033550585002     
 H     -0.01108276     -0.10675106     -0.37793975     -0.00439270     -0.02397363      0.00454276
 H      0.06555377      0.09382393      0.37612805      0.01763921      0.02082995     -0.00498334
    2
 MD step:        1750 time   4.2330475713837501     
 H     -0.01161749     -0.10963640     -0.37734660     -0.00440417     -0.02372216      0.00536605
 H      0.06769058      0.09632906      0.37548161      0.01765068      0.02057848     -0.00580663
    2
 MD step:        1800 time   4.3539917877090000     
 H     -0.01215460     -0.11248514     -0.37663634     -0.00442509     -0.02337581      0.00645939
 H      0.06982978      0.09879760      0.37471806      0.01767160      0.02023213     -0.00689997
    2
 MD step:        1850 time   4.4749360040342498     
 H     -0.01268383     -0.11528815     -0.37577343     -0.00436039     -0.02297051      0.00778805
 H      0.07196110      0.10122040      0.37380187      0.01760690      0.01982683     -0.00822862
    2
 MD step:        1900 time   4.5958802203594997     
 H     -0.01320585     -0.11804142     -0.37475051     -0.00425324     -0.02256507      0.00912175
 H      0.07408521      0.10359345      0.37272567      0.01749975      0.01942139     -0.00956233
    2
 MD step:        1950 time   4.7168244366847505     
 H     -0.01372283     -0.12074850     -0.37358488     -0.00428177     -0.02221155      0.01013099
 H      0.07620428      0.10592033      0.37150675      0.01752828      0.01906788     -0.01057156
    2
 MD step:        2000 time   4.8377686530100004     
 H     -0.01424047     -0.12341868     -0.37231307     -0.00436703     -0.02195083      0.01078853
 H      0.07832401      0.10821030      0.37018165      0.01761354      0.01880715     -0.01122910
    2
 MD step:        2050 time   4.9587128693352502     
 H     -0.01477218     -0.12606195     -0.37097963     -0.00443407     -0.02177312      0.01121342
 H      0.08045780      0.11047335      0.36879493      0.01768058      0.01862944     -0.01165400
    2
 MD step:        2100 time   5.0796570856605001     
 H     -0.01532392     -0.12868467     -0.36961025     -0.00460034     -0.02161093      0.01148327
 H      0.08261163      0.11271587      0.36737226      0.01784685      0.01846725     -0.01192385
    2
 MD step:        2150 time   5.2006013019857500     
 H     -0.01588982     -0.13128623     -0.36819906     -0.00477336     -0.02139979      0.01186089
 H      0.08477962      0.11493721      0.36590779      0.01801986      0.01825611     -0.01230147
    2
 MD step:        2200 time   5.3215455183109999     
 H     -0.01646405     -0.13385814     -0.36672005     -0.00476652     -0.02110666      0.01261039
 H      0.08695594      0.11712892      0.36437549      0.01801302      0.01796298     -0.01305097
    2
 MD step:        2250 time   5.4424897346362506     
 H     -0.01703864     -0.13638855     -0.36513775     -0.00468582     -0.02072387      0.01363458
 H      0.08913262      0.11927912      0.36273990      0.01793232      0.01758020     -0.01407516
    2
 MD step:        2300 time   5.5634339509615005     
 H     -0.01760184     -0.13886908     -0.36342280     -0.00462577     -0.02029485      0.01472347
 H      0.09129791      0.12137944      0.36097167      0.01787228      0.01715117     -0.01516405
    2
 MD step:        2350 time   5.6843781672867504     
 H     -0.01815291     -0.14129924     -0.36157652     -0.00452702     -0.01990543      0.01573105
 H      0.09345106      0.12342939      0.35907211      0.01777353      0.01676175     -0.01617163
    2
 MD step:        2400 time   5.8053223836120003     
 H     -0.01870224     -0.14368774     -0.35963253     -0.00451457     -0.01961814      0.01639627
 H      0.09560248      0.12543768      0.35707483      0.01776108      0.01647446     -0.01683684
    2
 MD step:        2450 time   5.9262665999372501     
 H     -0.01925855     -0.14604931     -0.35763509     -0.00468790     -0.01944804      0.01659895
 H      0.09776088      0.12741904      0.35502410      0.01793441      0.01630436     -0.01703953
    2
 MD step:        2500 time   6.0472108162625000     
 H     -0.01983071     -0.14839679     -0.35562270     -0.00486155     -0.01936351      0.01660671
 H      0.09993513      0.12938631      0.35295843      0.01810806      0.01621983     -0.01704729
    2
 MD step:        2550 time   6.1681550325877499     
 H     -0.02042564     -0.15073431     -0.35361198     -0.00495587     -0.01927851      0.01668980
 H      0.10213215      0.13134363      0.35089442      0.01820237      0.01613483     -0.01713038
    2
 MD step:        2600 time   6.2890992489130007     
 H     -0.02103570     -0.15305602     -0.35158384     -0.00504923     -0.01910317      0.01695303
 H      0.10434430      0.13328512      0.34881300      0.01829573      0.01595949     -0.01739361
    2
 MD step:        2650 time   6.4100434652382505     
 H     -0.02164580     -0.15535025     -0.34950070     -0.00505059     -0.01882413      0.01750425
 H      0.10655649      0.13519914      0.34667657      0.01829710      0.01568045     -0.01794482
    2
 MD step:        2700 time   6.5309876815635004     
 H     -0.02224953     -0.15760772     -0.34733934     -0.00493994     -0.01850828      0.01822415
 H      0.10876230      0.13707640      0.34446193      0.01818644      0.01536460     -0.01866473
    2
 MD step:        2750 time   6.6519318978887503     
 H     -0.02284738     -0.15982981     -0.34510472     -0.00492862     -0.01825548      0.01871061
 H      0.11096224      0.13891828      0.34217403      0.01817513      0.01511180     -0.01915119
    2
 MD step:        2800 time   6.7728761142140002     
 H     -0.02344647     -0.16203008     -0.34283077     -0.00505321     -0.01815061      0.01877823
 H      0.11316342      0.14073835      0.33984679      0.01829972      0.01500694     -0.01921880
    2
 MD step:        2850 time   6.8938203305392500     
 H     -0.02406399     -0.16422700     -0.34056903     -0.00520742     -0.01819728      0.01854141
 H      0.11538303      0.14255505      0.33753176      0.01845393      0.01505360     -0.01898199
    2
 MD step:        2900 time   7.0147645468644999     
 H     -0.02471180     -0.16643329     -0.33835400     -0.00542814     -0.01829690      0.01814833
 H      0.11763292      0.14438114      0.33526345      0.01867464      0.01515323     -0.01858891
    2
 MD step:        2950 time   7.1357087631897507     
 H     -0.02538412     -0.16864876     -0.33617924     -0.00565383     -0.01832981      0.01786693
 H      0.11990733      0.14621640      0.33303541      0.01890033      0.01518613     -0.01830751
    2
 MD step:        3000 time   7.2566529795150005     
 H     -0.02606903     -0.17086178     -0.33401309     -0.00570294     -0.01824828      0.01795129
 H      0.12219433      0.14804920      0.33081597      0.01894945      0.01510460     -0.01839186
    2
 MD step:        3050 time   7.3775971958402504     
 H     -0.02675761     -0.17306027     -0.33182715     -0.00566681     -0.01810647      0.01821403
 H      0.12448500      0.14986749      0.32857674      0.01891332      0.01496279     -0.01865461
    2
 MD step:        3100 time   7.4985414121655003     
 H     -0.02744610     -0.17524425     -0.32961815     -0.00574086     -0.01802955      0.01826008
 H      0.12677558      0.15167126      0.32631446      0.01898737      0.01488587     -0.01870065
    2
 MD step:        3150 time   7.6194856284907502     
 H     -0.02814533     -0.17742862     -0.32742036     -0.00590545     -0.01812299      0.01795463
 H      0.12907690      0.15347541      0.32406338      0.01915196      0.01497931     -0.01839521
    2
 MD step:        3200 time   7.7404298448160000     
 H     -0.02887580     -0.17963388     -0.32528488     -0.00615396     -0.01836988      0.01734283
 H      0.13140946      0.15530046      0.32187462      0.01940046      0.01522620     -0.01778341
    2
 MD step:        3250 time   7.8613740611412499     
 H     -0.02964529     -0.18187172     -0.32323578     -0.00649751     -0.01863882      0.01661365
 H      0.13378103      0.15715810      0.31977223      0.01974402      0.01549514     -0.01705423
    2
 MD step:        3300 time   7.9823182774665007     
 H     -0.03044495     -0.18413690     -0.32125560     -0.00673850     -0.01879850      0.01614944
 H      0.13618278      0.15904307      0.31773877      0.01998501      0.01565482     -0.01659002
    2
 MD step:        3350 time   8.1032624937917497     
 H     -0.03126225     -0.18641319     -0.31930847     -0.00678518     -0.01882688      0.01606392
 H      0.13860217      0.16093915      0.31573836      0.02003169      0.01568320     -0.01650449
    2
 MD step:        3400 time   8.2242067101170004     
 H     -0.03208746     -0.18868981     -0.31736970     -0.00684659     -0.01882926      0.01599953
 H      0.14102947      0.16283556      0.31374630      0.02009309      0.01568558     -0.01644010
    2
 MD step:        3450 time   8.3451509264422494     
 H     -0.03292248     -0.19097305     -0.31544927     -0.00703251     -0.01895583      0.01565145
 H      0.14346658      0.16473859      0.31177258      0.02027902      0.01581215     -0.01609203
    2
 MD step:        3500 time   8.4660951427675002     
 H     -0.03378622     -0.19328235     -0.31359047     -0.00729753     -0.01926109      0.01500535
 H      0.14593240      0.16666768      0.30986049      0.02054404      0.01611741     -0.01544593
    2
 MD step:        3550 time   8.5870393590927510     
 H     -0.03469505     -0.19563427     -0.31182925     -0.00765911     -0.01964105      0.01418199
 H      0.14844333      0.16863939      0.30804599      0.02090561      0.01649737     -0.01462257
    2
 MD step:        3600 time   8.7079835754179999     
 H     -0.03564477     -0.19802811     -0.31015924     -0.00800626     -0.01992625      0.01349733
 H      0.15099513      0.17065302      0.30632270      0.02125277      0.01678257     -0.01393791
    2
 MD step:        3650 time   8.8289277917432507     
 H     -0.03661991     -0.20044632     -0.30854320     -0.00814071     -0.02003599      0.01323627
 H      0.15357237      0.17269102      0.30465337      0.02138722      0.01689231     -0.01367685
    2
 MD step:        3700 time   8.9498720080684997     
 H     -0.03760726     -0.20287018     -0.30694582     -0.00816861     -0.02004151      0.01320214
 H      0.15616180      0.17473467      0.30300270      0.02141512      0.01689783     -0.01364272
    2
 MD step:        3750 time   9.0708162243937505     
 H     -0.03860224     -0.20529660     -0.30535888     -0.00831269     -0.02010338      0.01299113
 H      0.15875887      0.17678088      0.30136247      0.02155920      0.01695970     -0.01343171
    2
 MD step:        3800 time   9.1917604407189994     
 H     -0.03961733     -0.20774014     -0.30381027     -0.00855985     -0.02033113      0.01250379
 H      0.16137605      0.17884422      0.29976058      0.02180636      0.01718745     -0.01294437
    2
 MD step:        3850 time   9.3127046570442502     
 H     -0.04067282     -0.21021886     -0.30233862     -0.00887165     -0.02067286      0.01184137
 H      0.16403362      0.18094272      0.29823564      0.02211816      0.01752919     -0.01228195
    2
 MD step:        3900 time   9.4336488733695010     
 H     -0.04177213     -0.21273690     -0.30095064     -0.00922499     -0.02095536      0.01120603
 H      0.16673503      0.18308055      0.29679438      0.02247150      0.01781168     -0.01164661
    2
 MD step:        3950 time   9.5545930896947500     
 H     -0.04289972     -0.21527861     -0.29961432     -0.00942354     -0.02104364      0.01092146
 H      0.16946470      0.18524206      0.29540478      0.02267005      0.01789996     -0.01136204
    2
 MD step:        4000 time   9.6755373060200007     
 H     -0.04403800     -0.21781922     -0.29828776     -0.00940159     -0.02094658      0.01103450
 H      0.17220508      0.18740246      0.29402493      0.02264810      0.01780290     -0.01147508
    2
 MD step:        4050 time   9.7964815223452497     
 H     -0.04517549     -0.22034328     -0.29694506     -0.00939173     -0.02079805      0.01118029
 H      0.17494465      0.18954631      0.29262895      0.02263823      0.01765438     -0.01162086
    2
 MD step:        4100 time   9.9174257386705005     
 H     -0.04631379     -0.22285475     -0.29559177     -0.00950361     -0.02075571      0.01110631
 H      0.17768504      0.19167756      0.29122237      0.02275012      0.01761204     -0.01154688
    2
 MD step:        4150 time   10.038369954995749     
 H     -0.04747115     -0.22537043     -0.29426114     -0.00968167     -0.02087038      0.01082968
 H      0.18044449      0.19381303      0.28983845      0.02292818      0.01772671     -0.01127025
    2
 MD step:        4200 time   10.159314171321000     
 H     -0.04866284     -0.22790366     -0.29297973     -0.00995013     -0.02103183      0.01042619
 H      0.18323827      0.19596605      0.28850376      0.02319664      0.01788816     -0.01086677
    2
 MD step:        4250 time   10.280258387646251     
 H     -0.04988369     -0.23045098     -0.29173916     -0.01020393     -0.02107075      0.01014052
 H      0.18606120      0.19813317      0.28720991      0.02345044      0.01792707     -0.01058109
    2
 MD step:        4300 time   10.401202603971500     
 H     -0.05111692     -0.23299100     -0.29050525     -0.01021535     -0.02089058      0.01027063
 H      0.18889652      0.20029298      0.28592271      0.02346186      0.01774690     -0.01071121
    2
 MD step:        4350 time   10.522146820296751     
 H     -0.05234426     -0.23549650     -0.28923873     -0.01004803     -0.02051628      0.01072388
 H      0.19172595      0.20241827      0.28460290      0.02329454      0.01737261     -0.01116446
    2
 MD step:        4400 time   10.643091036622000     
 H     -0.05355075     -0.23795110     -0.28791305     -0.00990488     -0.02007727      0.01119261
 H      0.19453453      0.20449266      0.28322394      0.02315139      0.01693359     -0.01163319
    2
 MD step:        4450 time   10.764035252947250     
 H     -0.05473834     -0.24035691     -0.28653281     -0.00980484     -0.01973242      0.01154086
 H      0.19732420      0.20651826      0.28179041      0.02305135      0.01658874     -0.01198144
    2
 MD step:        4500 time   10.884979469272501     
 H     -0.05592555     -0.24272949     -0.28512860     -0.00981030     -0.01954163      0.01166875
 H      0.20011351      0.20851063      0.28033292      0.02305681      0.01639796     -0.01210933
    2
 MD step:        4550 time   11.005923685597750     
 H     -0.05712620     -0.24508536     -0.28372634     -0.00999685     -0.01943283      0.01155581
 H      0.20291625      0.21048629      0.27887737      0.02324336      0.01628915     -0.01199638
    2
 MD step:        4600 time   11.126867901923001     
 H     -0.05834167     -0.24742841     -0.28233040     -0.01014857     -0.01927881      0.01150438
 H      0.20573380      0.21244913      0.27742814      0.02339508      0.01613513     -0.01194496
    2
 MD step:        4650 time   11.247812118248250     
 H     -0.05956457     -0.24974391     -0.28092424     -0.01007281     -0.01895868      0.01178209
 H      0.20855879      0.21438442      0.27596870      0.02331932      0.01581500     -0.01222267
    2
 MD step:        4700 time   11.368756334573501     
 H     -0.06077511     -0.25200568     -0.27947239     -0.00986304     -0.01840793      0.01232852
 H      0.21137142      0.21626598      0.27446357      0.02310955      0.01526426     -0.01276909
    2
 MD step:        4750 time   11.489700550898750     
 H     -0.06194966     -0.25418930     -0.27793759     -0.00955779     -0.01768533      0.01306117
 H      0.21414805      0.21806939      0.27287548      0.02280430      0.01454166     -0.01350175
    2
 MD step:        4800 time   11.610644767224001     
 H     -0.06308065     -0.25628260     -0.27630669     -0.00916583     -0.01694009      0.01387937
 H      0.21688113      0.21978248      0.27119130      0.02241234      0.01379641     -0.01431994
    2
 MD step:        4850 time   11.731588983549251     
 H     -0.06417537     -0.25829074     -0.27459164     -0.00890431     -0.01629606      0.01449682
 H      0.21957794      0.22141041      0.26942295      0.02215081      0.01315239     -0.01493740
    2
 MD step:        4900 time   11.852533199874500     
 H     -0.06524601     -0.26023215     -0.27281622     -0.00884887     -0.01581864      0.01480681
 H      0.22225067      0.22297161      0.26759426      0.02209538      0.01267497     -0.01524738
    2
 MD step:        4950 time   11.973477416199751     
 H     -0.06631007     -0.26212568     -0.27100910     -0.00882374     -0.01549055      0.01500053
 H      0.22491682      0.22448493      0.26573385      0.02207025      0.01234687     -0.01544110
    2
 MD step:        5000 time   12.094421632525000     
 H     -0.06737951     -0.26397974     -0.26918744     -0.00880043     -0.01517701      0.01517918
 H      0.22758835      0.22595878      0.26385891      0.02204694      0.01203333     -0.01561976
    2
 MD step:        5050 time   12.215365848850251     
 H     -0.06844599     -0.26578795     -0.26734060     -0.00877049     -0.01471685      0.01542842
 H      0.23025691      0.22738678      0.26195878      0.02201700      0.01157318     -0.01586900
    2
 MD step:        5100 time   12.336310065175500     
 H     -0.06949045     -0.26753007     -0.26544093     -0.00853118     -0.01405192      0.01597224
 H      0.23290347      0.22874870      0.26000582      0.02177769      0.01090824     -0.01641282
    2
 MD step:        5150 time   12.457254281500751     
 H     -0.07049558     -0.26918030     -0.26346067     -0.00806969     -0.01320545      0.01680630
 H      0.23551069      0.23001872      0.25797228      0.02131619      0.01006177     -0.01724688
    2
 MD step:        5200 time   12.578198497826001     
 H     -0.07144489     -0.27072029     -0.26137706     -0.00759487     -0.01225702      0.01768197
 H      0.23806208      0.23117850      0.25583538      0.02084138      0.00911334     -0.01812254
    2
 MD step:        5250 time   12.699142714151250     
 H     -0.07233278     -0.27214721     -0.25918521     -0.00714776     -0.01135623      0.01849410
 H      0.24055206      0.23222520      0.25359025      0.02039427      0.00821255     -0.01893468
    2
 MD step:        5300 time   12.820086930476501     
 H     -0.07317347     -0.27347361     -0.25690627     -0.00677157     -0.01062302      0.01915490
 H      0.24299484      0.23317139      0.25125802      0.02001807      0.00747934     -0.01959548
    2
 MD step:        5350 time   12.941031146801750     
 H     -0.07398651     -0.27472243     -0.25457022     -0.00663410     -0.01006985      0.01949758
 H      0.24540997      0.23404001      0.24886868      0.01988060      0.00692618     -0.01993816
    2
 MD step:        5400 time   13.061975363127001     
 H     -0.07478611     -0.27591580     -0.25220062     -0.00664395     -0.00965517      0.01963411
 H      0.24781166      0.23485316      0.24644580      0.01989046      0.00651149     -0.02007469
    2
 MD step:        5450 time   13.182919579452250     
 H     -0.07558273     -0.27706300     -0.24981210     -0.00656800     -0.00928126      0.01983549
 H      0.25021036      0.23562016      0.24400399      0.01981450      0.00613758     -0.02027607
    2
 MD step:        5500 time   13.303863795777501     
 H     -0.07637269     -0.27815682     -0.24739947     -0.00640632     -0.00878797      0.02015452
 H      0.25260241      0.23633377      0.24153808      0.01965283      0.00564429     -0.02059510
    2
 MD step:        5550 time   13.424808012102751     
 H     -0.07713456     -0.27917841     -0.24493637     -0.00614633     -0.00808629      0.02062664
 H      0.25496637      0.23697515      0.23902169      0.01939284      0.00494262     -0.02106722
    2
 MD step:        5600 time   13.545752228428000     
 H     -0.07784779     -0.28010556     -0.24239689     -0.00567373     -0.00722442      0.02134548
 H      0.25728169      0.23752209      0.23642893      0.01892024      0.00408074     -0.02178605
    2
 MD step:        5650 time   13.666696444753251     
 H     -0.07850274     -0.28092419     -0.23976903     -0.00513465     -0.00631811      0.02212870
 H      0.25953873      0.23796051      0.23374778      0.01838116      0.00317443     -0.02256928
    2
 MD step:        5700 time   13.787640661078500     
 H     -0.07909890     -0.28163801     -0.23705498     -0.00474687     -0.00551047      0.02272090
 H      0.26173698      0.23829412      0.23098044      0.01799338      0.00236679     -0.02316148
    2
 MD step:        5750 time   13.908584877403751     
 H     -0.07965192     -0.28226713     -0.23427698     -0.00449231     -0.00492935      0.02311317
 H      0.26389209      0.23854303      0.22814916      0.01773882      0.00178567     -0.02355375
    2
 MD step:        5800 time   14.029529093729000     
 H     -0.08018917     -0.28283871     -0.23147001     -0.00438758     -0.00457490      0.02329634