    2
 MD step:           0 time   0.0000000000000000     
 H      0.00000000      0.00000000     -0.37000000     -0.02973995      0.01507142     -0.01830951
 H      0.00000000      0.00000000      0.37000000     -0.02170547      0.01735321      0.04659552
    2
 MD step:          50 time  0.12094421632525000     
 H     -0.00359968      0.00182280     -0.37222035     -0.02981990      0.01507141     -0.01838535
 H     -0.00262235      0.00209877      0.37564138     -0.02162552      0.01735322      0.04667136
    2
 MD step:         100 time  0.24188843265050000     
 H     -0.00720737      0.00364560     -0.37445023     -0.02984243      0.01507139     -0.01855996
 H     -0.00523668      0.00419754      0.38129229     -0.02160299      0.01735324      0.04684597
    2
 MD step:         150 time  0.36283264897575002     
 H     -0.01082309      0.00546840     -0.37669840     -0.02986319      0.01507150     -0.01854895
 H     -0.00784299      0.00629631      0.38696149     -0.02158224      0.01735313      0.04683497
    2
 MD step:         200 time  0.48377686530100000     
 H     -0.01443051      0.00729125     -0.37892549     -0.02982773      0.01507225     -0.01813824
 H     -0.01045760      0.00839504      0.39260961     -0.02161770      0.01735238      0.04642425
    2
 MD step:         250 time  0.60472108162625005     
 H     -0.01803129      0.00911425     -0.38105456     -0.02973058      0.01507412     -0.01701193
 H     -0.01307884      0.01049361      0.39815970     -0.02171484      0.01735051      0.04529794
    2
 MD step:         300 time  0.72566529795150003     
 H     -0.02162791      0.01093755     -0.38302616     -0.02976895      0.01507701     -0.01556365
 H     -0.01570425      0.01259188      0.40355234     -0.02167647      0.01734763      0.04384967
    2
 MD step:         350 time  0.84660951427675002     
 H     -0.02523004      0.01276123     -0.38481726     -0.02978168      0.01508041     -0.01413340
 H     -0.01832415      0.01468977      0.40876447     -0.02166375      0.01734422      0.04241941
    2
 MD step:         400 time  0.96755373060200001     
 H     -0.02884131      0.01458534     -0.38644859     -0.02989418      0.01508408     -0.01282333
 H     -0.02093490      0.01678723      0.41381683     -0.02155125      0.01734055      0.04110935
    2
 MD step:         450 time   1.0884979469272500     
 H     -0.03245137      0.01640993     -0.38792582     -0.02987176      0.01508850     -0.01157552
 H     -0.02354686      0.01888422      0.41871509     -0.02157366      0.01733613      0.03986153
    2
 MD step:         500 time   1.2094421632525001     
 H     -0.03606032      0.01823512     -0.38922620     -0.02974755      0.01509430     -0.00988026
 H     -0.02615995      0.02098060      0.42343649     -0.02169787      0.01733033      0.03816627
    2
 MD step:         550 time   1.3303863795777500     
 H     -0.03965593      0.02006114     -0.39030258     -0.02971080      0.01510209     -0.00778947
 H     -0.02878636      0.02307615      0.42793390     -0.02173462      0.01732254      0.03607549
    2
 MD step:         600 time   1.4513305959030001     
 H     -0.04324158      0.02188823     -0.39109532     -0.02960480      0.01511189     -0.00529954
 H     -0.03142273      0.02517063      0.43214768     -0.02184062      0.01731274      0.03358556
    2
 MD step:         650 time   1.5722748122282502     
 H     -0.04682325      0.02371658     -0.39157852     -0.02963315      0.01512295     -0.00266775
 H     -0.03406310      0.02726385      0.43605191     -0.02181228      0.01730168      0.03095376
    2
 MD step:         700 time   1.6932190285535000     
 H     -0.05040474      0.02554630     -0.39174848     -0.02961592      0.01513436     -0.00022298
 H     -0.03670363      0.02935570      0.43964290     -0.02182950      0.01729027      0.02850900
    2
 MD step:         750 time   1.8141632448787501     
 H     -0.05399450      0.02737740     -0.39163471     -0.02967703      0.01514550      0.00206046
 H     -0.03933589      0.03144617      0.44295015     -0.02176839      0.01727913      0.02622556
    2
 MD step:         800 time   1.9351074612040000     
 H     -0.05758183      0.02920985     -0.39126592     -0.02971695      0.01515692      0.00405550
 H     -0.04197060      0.03353530      0.44600240     -0.02172847      0.01726771      0.02423052
    2
 MD step:         850 time   2.0560516775292501     
 H     -0.06116972      0.03104369     -0.39064862     -0.02957262      0.01516888      0.00613490
 H     -0.04460473      0.03562303      0.44880612     -0.02187280      0.01725576      0.02215111
    2
 MD step:         900 time   2.1769958938545000     
 H     -0.06474746      0.03287908     -0.38977566     -0.02954961      0.01518238      0.00840202
 H     -0.04724902      0.03770921      0.45135419     -0.02189581      0.01724225      0.01988399
    2
 MD step:         950 time   2.2979401101797499     
 H     -0.06830785      0.03471626     -0.38860629     -0.02938528      0.01519854      0.01095684
 H     -0.04991065      0.03979360      0.45360585     -0.02206015      0.01722609      0.01732917
    2
 MD step:        1000 time   2.4188843265050002     
 H     -0.07185708      0.03655552     -0.38710563     -0.02927282      0.01521684      0.01389232
 H     -0.05258344      0.04187592      0.45552622     -0.02217260      0.01720779      0.01439369
    2
 MD step:        1050 time   2.5398285428302501     
 H     -0.07539169      0.03839709     -0.38524703     -0.02921096      0.01523659      0.01684671
 H     -0.05527087      0.04395591      0.45708866     -0.02223446      0.01718804      0.01143930
    2
 MD step:        1100 time   2.6607727591554999     
 H     -0.07892396      0.04024108     -0.38303006     -0.02916862      0.01525645      0.01976237
 H     -0.05796062      0.04603350      0.45829271     -0.02227681      0.01716818      0.00852365
    2
 MD step:        1150 time   2.7817169754807503     
 H     -0.08245267      0.04208742     -0.38048506     -0.02923137      0.01527558      0.02231731
 H     -0.06065394      0.04810872      0.45916874     -0.02221405      0.01714905      0.00596871
    2
 MD step:        1200 time   2.9026611918060001     
 H     -0.08598330      0.04393598     -0.37764505     -0.02914330      0.01529315      0.02454404
 H     -0.06334533      0.05018174      0.45974976     -0.02230213      0.01713148      0.00374197
    2
 MD step:        1250 time   3.0236054081312500     
 H     -0.08951380      0.04578662     -0.37455296     -0.02917044      0.01530975      0.02659118
 H     -0.06603685      0.05225267      0.46007871     -0.02227499      0.01711488      0.00169484
    2
 MD step:        1300 time   3.1445496244565003     
 H     -0.09303092      0.04763930     -0.37121969     -0.02906758      0.01532734      0.02853485
 H     -0.06874177      0.05432156      0.46016646     -0.02237784      0.01709729     -0.00024884
    2
 MD step:        1350 time   3.2654938407817502     
 H     -0.09653809      0.04949418     -0.36763395     -0.02887585      0.01534643      0.03077652
 H     -0.07145662      0.05638826      0.46000175     -0.02256958      0.01707820     -0.00249051
    2
 MD step:        1400 time   3.3864380571070001     
 H     -0.10002499      0.05135150     -0.36377161     -0.02878774      0.01536764      0.03317720
 H     -0.07419175      0.05845251      0.45956044     -0.02265768      0.01705699     -0.00489118
    2
 MD step:        1450 time   3.5073822734322500     
 H     -0.10349716      0.05321149     -0.35960450     -0.02864704      0.01539030      0.03570841
 H     -0.07694160      0.06051408      0.45881436     -0.02279838      0.01703433     -0.00742240
    2
 MD step:        1500 time   3.6283264897575003     
 H     -0.10696104      0.05507421     -0.35514109     -0.02864978      0.01541227      0.03807940
 H     -0.07969976      0.06257294      0.45777198     -0.02279564      0.01701237     -0.00979339
    2
 MD step:        1550 time   3.7492707060827501     
 H     -0.11042179      0.05693942     -0.35041286     -0.02860278      0.01543138      0.03998045
 H     -0.08246103      0.06462930      0.45646478     -0.02284265      0.01699325     -0.01169444
    2
 MD step:        1600 time   3.8702149224080000     
 H     -0.11388679      0.05880673     -0.34548225     -0.02862028      0.01544678      0.04148397
 H     -0.08521805      0.06668356      0.45495520     -0.02282514      0.01697785     -0.01319796
    2
 MD step:        1650 time   3.9911591387332503     
 H     -0.11734395      0.06067577     -0.34039843     -0.02860417      0.01546032      0.04258915
 H     -0.08798292      0.06873609      0.45329241     -0.02284126      0.01696431     -0.01430314
    2
 MD step:        1700 time   4.1121033550585002     
 H     -0.12079272      0.06254641     -0.33517350     -0.02841930      0.01547389      0.04377799
 H     -0.09075618      0.07078702      0.45148850     -0.02302612      0.01695074     -0.01549198
    2
 MD step:        1750 time   4.2330475713837501     
 H     -0.12422656      0.06441876     -0.32980140     -0.02834007      0.01548846      0.04510892
 H     -0.09354437      0.07283625      0.44953744     -0.02310535      0.01693617     -0.01682291
    2
 MD step:        1800 time   4.3539917877090000     
 H     -0.12764875      0.06629286     -0.32426813     -0.02826983      0.01550235      0.04634041
 H     -0.09634420      0.07488372      0.44742520     -0.02317560      0.01692229     -0.01805440
    2
 MD step:        1850 time   4.4749360040342498     
 H     -0.13107237      0.06816841     -0.31861153     -0.02834242      0.01551171      0.04713521
 H     -0.09914261      0.07692975      0.44518962     -0.02310301      0.01691293     -0.01884920
    2
 MD step:        1900 time   4.5958802203594997     
 H     -0.13449909      0.07004468     -0.31290262     -0.02838207      0.01551444      0.04716486
 H     -0.10193791      0.07897505      0.44290174     -0.02306335      0.01691019     -0.01887885
    2
 MD step:        1950 time   4.7168244366847505     
 H     -0.13793114      0.07192096     -0.30721043     -0.02831302      0.01551267      0.04690359
 H     -0.10472788      0.08102033      0.44063059     -0.02313240      0.01691196     -0.01861758
    2
 MD step:        2000 time   4.8377686530100004     
 H     -0.14135543      0.07379698     -0.30155807     -0.02829222      0.01551031      0.04663922
 H     -0.10752562      0.08306589      0.43839926     -0.02315321      0.01691432     -0.01835321
    2
 MD step:        2050 time   4.9587128693352502     
 H     -0.14477461      0.07567266     -0.29593401     -0.02827370      0.01550644      0.04632278
 H     -0.11032847      0.08511178      0.43619623     -0.02317172      0.01691819     -0.01803677
    2
 MD step:        2100 time   5.0796570856605001     
 H     -0.14820226      0.07754751     -0.29037897     -0.02842700      0.01549556      0.04544993
 H     -0.11312285      0.08715850      0.43406221     -0.02301843      0.01692907     -0.01716392
    2
 MD step:        2150 time   5.2006013019857500     
 H     -0.15164292      0.07942045     -0.28497782     -0.02851460      0.01547536      0.04375097
 H     -0.11590421      0.08920713      0.43208210     -0.02293082      0.01694927     -0.01546496
    2
 MD step:        2200 time   5.3215455183109999     
 H     -0.15509430      0.08129065     -0.27979488     -0.02851154      0.01545118      0.04193214
 H     -0.11867486      0.09125850      0.43032019     -0.02293388      0.01697345     -0.01364613
    2
 MD step:        2250 time   5.4424897346362506     
 H     -0.15854688      0.08315787     -0.27483267     -0.02859106      0.01542572      0.04012597
 H     -0.12144431      0.09331285      0.42877901     -0.02285436      0.01699891     -0.01183996
    2
 MD step:        2300 time   5.5634339509615005     
 H     -0.16201565      0.08502166     -0.27010671     -0.02875420      0.01539297      0.03787344
 H     -0.12419757      0.09537064      0.42747408     -0.02269123      0.01703166     -0.00958743
    2
 MD step:        2350 time   5.6843781672867504     
 H     -0.16550930      0.08688082     -0.26570626     -0.02899147      0.01534980      0.03487521
 H     -0.12692594      0.09743305      0.42649466     -0.02245396      0.01707483     -0.00658920
    2
 MD step:        2400 time   5.8053223836120003     
 H     -0.16901810      0.08873449     -0.26167961     -0.02907542      0.01530347      0.03175264
 H     -0.12963916      0.09950095      0.42588904     -0.02237001      0.01712116     -0.00346663
    2
 MD step:        2450 time   5.9262665999372501     
 H     -0.17254333      0.09058255     -0.25801519     -0.02925216      0.01525617      0.02880366
 H     -0.13233596      0.10157446      0.42564565     -0.02219327      0.01716847     -0.00051765
    2
 MD step:        2500 time   6.0472108162625000     
 H     -0.17609581      0.09242437     -0.25474104     -0.02954275      0.01519947      0.02520387
 H     -0.13500551      0.10365421      0.42579252     -0.02190267      0.01722516      0.00308214
    2
 MD step:        2550 time   6.1681550325877499     
 H     -0.17968110      0.09425885     -0.25192565     -0.02970425      0.01513637      0.02131495
 H     -0.13764225      0.10574130      0.42639816     -0.02174117      0.01728826      0.00697107
    2
 MD step:        2600 time   6.2890992489130007     
 H     -0.18328602      0.09608581     -0.24956667     -0.02990035      0.01507555      0.01775814
 H     -0.14025935      0.10783592      0.42746021     -0.02154507      0.01734908      0.01052788
    2
 MD step:        2650 time   6.4100434652382505     
 H     -0.18691896      0.09790532     -0.24763410     -0.03017445      0.01501138      0.01407714
 H     -0.14284844      0.10993797      0.42894867     -0.02127097      0.01741325      0.01420887
    2
 MD step:        2700 time   6.5309876815635004     
 H     -0.19059142      0.09971660     -0.24617745     -0.03048283      0.01494046      0.01003553
 H     -0.14539800      0.11204827      0.43091305     -0.02096259      0.01748417      0.01825048
    2
 MD step:        2750 time   6.6519318978887503     
 H     -0.19428824      0.10151941     -0.24519941     -0.03066950      0.01487323      0.00628989
 H     -0.14792321      0.11416703      0.43335604     -0.02077592      0.01755140      0.02199612
    2
 MD step:        2800 time   6.7728761142140002     
 H     -0.19801143      0.10331444     -0.24463955     -0.03091935      0.01481028      0.00297964
 H     -0.15042205      0.11629358      0.43621721     -0.02052607      0.01761435      0.02530637
    2
 MD step:        2850 time   6.8938203305392500     
 H     -0.20177006      0.10510160     -0.24449922     -0.03127070      0.01474271     -0.00066037
 H     -0.15288544      0.11842799      0.43949791     -0.02017472      0.01768192      0.02894638
    2
 MD step:        2900 time   7.0147645468644999     
 H     -0.20556048      0.10688064     -0.24478935     -0.03141737      0.01467798     -0.00408455
 H     -0.15531705      0.12057052      0.44320907     -0.02002805      0.01774665      0.03237056
    2
 MD step:        2950 time   7.1357087631897507     
 H     -0.20937076      0.10865252     -0.24544907     -0.03159175      0.01462422     -0.00674545
 H     -0.15772880      0.12272020      0.44728982     -0.01985367      0.01780041      0.03503146
    2
 MD step:        3000 time   7.2566529795150005     
 H     -0.21320501      0.11041819     -0.24641411     -0.03182976      0.01457322     -0.00929038
 H     -0.16011658      0.12487611      0.45167589     -0.01961566      0.01785141      0.03757640
    2
 MD step:        3050 time   7.3775971958402504     
 H     -0.21707320      0.11217761     -0.24769293     -0.03205009      0.01452200     -0.01183136
 H     -0.16247041      0.12703826      0.45637574     -0.01939533      0.01790264      0.04011737
    2
 MD step:        3100 time   7.4985414121655003     
 H     -0.22095757      0.11393129     -0.24926111     -0.03217693      0.01448046     -0.01390495
 H     -0.16480807      0.12920615      0.46136495     -0.01926849      0.01794417      0.04219096
    2
 MD step:        3150 time   7.6194856284907502     
 H     -0.22485134      0.11568082     -0.25102630     -0.03223478      0.01445243     -0.01519941
 H     -0.16713632      0.13137819      0.46655117     -0.01921065      0.01797220      0.04348542
    2
 MD step:        3200 time   7.7404298448160000     
 H     -0.22876008      0.11742730     -0.25293470     -0.03243722      0.01442847     -0.01633626
 H     -0.16944961      0.13355328      0.47188060     -0.01900820      0.01799616      0.04462228
    2
 MD step:        3250 time   7.8613740611412499     
 H     -0.23268774      0.11917089     -0.25498189     -0.03252754      0.01440529     -0.01754756
 H     -0.17174398      0.13573127      0.47734882     -0.01891788      0.01801934      0.04583358
    2
 MD step:        3300 time   7.9823182774665007     
 H     -0.23662731      0.12091210     -0.25715410     -0.03253466      0.01439098     -0.01825663
 H     -0.17402643      0.13791162      0.48294206     -0.01891076      0.01803365      0.04654264
    2
 MD step:        3350 time   8.1032624937917497     
 H     -0.24055966      0.12265251     -0.25937395     -0.03249992      0.01439178     -0.01829705
 H     -0.17631611      0.14009279      0.48858294     -0.01894550      0.01803285      0.04658307
    2
 MD step:        3400 time   8.2242067101170004     
 H     -0.24448847      0.12439370     -0.26156121     -0.03246999      0.01440247     -0.01783258
 H     -0.17860933      0.14227318      0.49419123     -0.01897544      0.01802216      0.04611859
    2
 MD step:        3450 time   8.3451509264422494     
 H     -0.24841798      0.12613633     -0.26369446     -0.03255345      0.01441472     -0.01742521
 H     -0.18090184      0.14445212      0.49974551     -0.01889197      0.01800991      0.04571123
    2
 MD step:        3500 time   8.4660951427675002     
 H     -0.25235185      0.12788040     -0.26577857     -0.03249402      0.01442724     -0.01707994
 H     -0.18319000      0.14662962      0.50525065     -0.01895140      0.01799739      0.04536595
    2
 MD step:        3550 time   8.5870393590927510     
 H     -0.25628307      0.12962637     -0.26780828     -0.03242859      0.01444691     -0.01637704
 H     -0.18548080      0.14880522      0.51070138     -0.01901683      0.01797772      0.04466306
    2
 MD step:        3600 time   8.7079835754179999     
 H     -0.26019296      0.13137549     -0.26972595     -0.03226336      0.01447960     -0.01521430
 H     -0.18779294      0.15097766      0.51604009     -0.01918207      0.01794503      0.04350031
    2
 MD step:        3650 time   8.8289277917432507     
 H     -0.26408191      0.13312933     -0.27146183     -0.03204490      0.01452430     -0.01344988
 H     -0.19012601      0.15314540      0.52119700     -0.01940052      0.01790033      0.04173589
    2
 MD step:        3700 time   8.9498720080684997     
 H     -0.26794829      0.13488897     -0.27297392     -0.03192518      0.01457428     -0.01154813
 H     -0.19248166      0.15530733      0.52613012     -0.01952024      0.01785035      0.03983414
    2
 MD step:        3750 time   9.0708162243937505     
 H     -0.27180234      0.13665464     -0.27425436     -0.03177843      0.01462311     -0.00971217
 H     -0.19484964      0.15746323      0.53083159     -0.01966699      0.01780152      0.03799818
    2
 MD step:        3800 time   9.1917604407189994     
 H     -0.27564562      0.13842610     -0.27533010     -0.03175864      0.01466980     -0.00805091
 H     -0.19722839      0.15961334      0.53532836     -0.01968678      0.01775483      0.03633692
    2
 MD step:        3850 time   9.3127046570442502     
 H     -0.27947114      0.14020318     -0.27620913     -0.03156116      0.01471821     -0.00647885
 H     -0.19962489      0.16175784      0.53962841     -0.01988426      0.01770642      0.03476486
    2
 MD step:        3900 time   9.4336488733695010     
 H     -0.28327787      0.14198640     -0.27687857     -0.03130103      0.01477237     -0.00453663
 H     -0.20204019      0.16389618      0.54371889     -0.02014440      0.01765226      0.03282264
    2
 MD step:        3950 time   9.5545930896947500     
 H     -0.28704796      0.14377686     -0.27729835     -0.03106075      0.01483689     -0.00229399
 H     -0.20449213      0.16602730      0.54755969     -0.02038467      0.01758774      0.03058001
    2
 MD step:        4000 time   9.6755373060200007     
 H     -0.29078213      0.14557570     -0.27741558     -0.03069906      0.01491102      0.00036723
 H     -0.20697998      0.16815003      0.55109795     -0.02074636      0.01751361      0.02791878
    2
 MD step:        4050 time   9.7964815223452497     
 H     -0.29448007      0.14738385     -0.27720199     -0.03046021      0.01498983      0.00319453
 H     -0.20950407      0.17026345      0.55430539     -0.02098521      0.01743480      0.02509148
    2
 MD step:        4100 time   9.9174257386705005     
 H     -0.29814666      0.14920152     -0.27664662     -0.03018483      0.01506755      0.00591402
 H     -0.21205950      0.17236735      0.55717105     -0.02126060      0.01735709      0.02237200
    2
 MD step:        4150 time   10.038369954995749     
 H     -0.30179153      0.15102836     -0.27577620     -0.03005237      0.01514036      0.00845614
 H     -0.21463666      0.17446209      0.55972166     -0.02139305      0.01728427      0.01982988
    2
 MD step:        4200 time   10.159314171321000     
 H     -0.30541076      0.15286362     -0.27462218     -0.02987469      0.01520867      0.01061392
 H     -0.21723945      0.17654840      0.56198867     -0.02157073      0.01721596      0.01767210
    2
 MD step:        4250 time   10.280258387646251     
 H     -0.30901228      0.15470686     -0.27320766     -0.02960294      0.01527284      0.01273568
 H     -0.21985996      0.17862673      0.56399518     -0.02184249      0.01715179      0.01555033
    2
 MD step:        4300 time   10.401202603971500     
 H     -0.31258223      0.15655812     -0.27154246     -0.02942833      0.01534004      0.01486890
 H     -0.22251204      0.18069704      0.56575101     -0.02201709      0.01708459      0.01341711
    2
 MD step:        4350 time   10.522146820296751     
 H     -0.31611466      0.15841784     -0.26960095     -0.02902818      0.01541484      0.01723854
 H     -0.22520163      0.18275889      0.56723053     -0.02241724      0.01700979      0.01104747
    2
 MD step:        4400 time   10.643091036622000     
 H     -0.31960812      0.16028702     -0.26735407     -0.02868490      0.01549643      0.01998143
 H     -0.22793020      0.18481129      0.56840468     -0.02276053      0.01692821      0.00830458
    2
 MD step:        4450 time   10.764035252947250     
 H     -0.32305435      0.16216647     -0.26476690     -0.02833929      0.01558367      0.02282662
 H     -0.23070600      0.18685341      0.56923854     -0.02310613      0.01684096      0.00545939
    2
 MD step:        4500 time   10.884979469272501     
 H     -0.32646428      0.16405653     -0.26182839     -0.02803259      0.01567081      0.02574085
 H     -0.23351809      0.18888492      0.56972106     -0.02341283      0.01675383      0.00254516
    2
 MD step:        4550 time   11.005923685597750     
 H     -0.32983910      0.16595682     -0.25855708     -0.02783070      0.01575253      0.02832718
 H     -0.23636530      0.19090620      0.56987078     -0.02361473      0.01667210     -0.00004117
    2
 MD step:        4600 time   11.126867901923001     
 H     -0.33319147      0.16786643     -0.25498668     -0.02757455      0.01582429      0.03059079
 H     -0.23923496      0.19291816      0.56972140     -0.02387087      0.01660034     -0.00230478
    2
 MD step:        4650 time   11.247812118248250     
 H     -0.33652178      0.16978429     -0.25116934     -0.02747390      0.01588817      0.03252976
 H     -0.24212667      0.19492187      0.56932510     -0.02397153      0.01653646     -0.00424374
    2
 MD step:        4700 time   11.368756334573501     
 H     -0.33982416      0.17170956     -0.24712981     -0.02720208      0.01594952      0.03424713
 H     -0.24504632      0.19691817      0.56870660     -0.02424335      0.01647511     -0.00596112
    2
 MD step:        4750 time   11.489700550898750     
 H     -0.34309992      0.17364225     -0.24287288     -0.02688914      0.01601201      0.03617408
 H     -0.24799259      0.19890706      0.56787070     -0.02455628      0.01641262     -0.00788807
    2
 MD step:        4800 time   11.610644767224001     
 H     -0.34633476      0.17558286     -0.23837932     -0.02661909      0.01607973      0.03821098
 H     -0.25097977      0.20088802      0.56679817     -0.02482634      0.01634490     -0.00992497
    2
 MD step:        4850 time   11.731588983549251     
 H     -0.34953382      0.17753187     -0.23362403     -0.02629688      0.01614994      0.04039896
 H     -0.25400274      0.20286058      0.56546391     -0.02514855      0.01627469     -0.01211295
    2
 MD step:        4900 time   11.852533199874500     
 H     -0.35270255      0.17948911     -0.22861642     -0.02613553      0.01621441      0.04237186
 H     -0.25705603      0.20482491      0.56387733     -0.02530989      0.01621023     -0.01408585
    2
 MD step:        4950 time   11.973477416199751     
 H     -0.35585274      0.18145338     -0.22339351     -0.02596959      0.01626522      0.04384595
 H     -0.26012787      0.20678221      0.56207545     -0.02547583      0.01615942     -0.01555994
    2
 MD step:        5000 time   12.094421632525000     
 H     -0.35899493      0.18342290     -0.21802635     -0.02593263      0.01630095      0.04485295
 H     -0.26320771      0.20873426      0.56012932     -0.02551279      0.01612369     -0.01656694
    2
 MD step:        5050 time   12.215365848850251     
 H     -0.36212162      0.18539617     -0.21256403     -0.02583277      0.01632913      0.04547446
 H     -0.26630304      0.21068257      0.55808803     -0.02561266      0.01609551     -0.01718844
    2
 MD step:        5100 time   12.336310065175500     
 H     -0.36523323      0.18737275     -0.20701638     -0.02560889      0.01635702      0.04623588
 H     -0.26941346      0.21262756      0.55596141     -0.02583653      0.01606761     -0.01794986
    2
 MD step:        5150 time   12.457254281500751     
 H     -0.36832381      0.18935274     -0.20137625     -0.02549922      0.01638469      0.04704019
 H     -0.27254490      0.21456914      0.55374231     -0.02594621      0.01603994     -0.01875418
    2
 MD step:        5200 time   12.578198497826001     
 H     -0.37140444      0.19133560     -0.19565003     -0.02545096      0.01640199      0.04753755
 H     -0.27568630      0.21650786      0.55143711     -0.02599446      0.01602264     -0.01925154
    2
 MD step:        5250 time   12.699142714151250     
 H     -0.37449153      0.19331936     -0.18990689     -0.02559646      0.01639891      0.04736659
 H     -0.27882123      0.21844566      0.54911501     -0.02584897      0.01602572     -0.01908057
    2
 MD step:        5300 time   12.820086930476501     
 H     -0.37758839      0.19530158     -0.18422393     -0.02567369      0.01637836      0.04654319
 H     -0.28194640      0.22038501      0.54685308     -0.02577173      0.01604627     -0.01825718
    2
 MD step:        5350 time   12.941031146801750     
 H     -0.38069534      0.19728091     -0.17864171     -0.02567210      0.01635311      0.04574674
 H     -0.28506148      0.22232726      0.54469189     -0.02577333      0.01607153     -0.01746073
    2
 MD step:        5400 time   13.061975363127001     
 H     -0.38380571      0.19925711     -0.17315746     -0.02577813      0.01632498      0.04491900
 H     -0.28817314      0.22427263      0.54262867     -0.02566730      0.01609965     -0.01663299
    2
 MD step:        5450 time   13.182919579452250     
 H     -0.38693712      0.20122903     -0.16779489     -0.02599742      0.01627944      0.04360630
 H     -0.29126376      0.22622228      0.54068712     -0.02544801      0.01614519     -0.01532029
    2
 MD step:        5500 time   13.303863795777501     
 H     -0.39010463      0.20319392     -0.16264522     -0.02636707      0.01620956      0.04151043
 H     -0.29431827      0.22817896      0.53895848     -0.02507835      0.01621507     -0.01322441
    2
 MD step:        5550 time   13.424808012102751     
 H     -0.39330485      0.20514961     -0.15776849     -0.02659853      0.01613056      0.03914622
 H     -0.29734008      0.23014484      0.53750278     -0.02484690      0.01629407     -0.01086021
    2
 MD step:        5600 time   13.545752228428000     
 H     -0.39653701      0.20709575     -0.15316471     -0.02687674      0.01605025      0.03694484
 H     -0.30032995      0.23212028      0.53632003     -0.02456868      0.01637438     -0.00865882
    2
 MD step:        5650 time   13.666696444753251     
 H     -0.39981184      0.20903127     -0.14885412     -0.02733787      0.01595209      0.03417698
 H     -0.30327714      0.23410633      0.53543047     -0.02410755      0.01647254     -0.00589097
    2
 MD step:        5700 time   13.787640661078500     
 H     -0.40314813      0.21095347     -0.14491769     -0.02778209      0.01583251      0.03081330
 H     -0.30616288      0.23610570      0.53491507     -0.02366333      0.01659212     -0.00252729
    2
 MD step:        5750 time   13.908584877403751     
 H     -0.40653653      0.21286096     -0.14139535     -0.02821180      0.01571224      0.02752391
 H     -0.30899650      0.23811978      0.53481376     -0.02323362      0.01671239      0.00076211
    2
 MD step:        5800 time   14.029529093729000     
 H     -0.40997635      0.21475398     -0.13826024     -0.02869046      0.01558974      0.02426069