    2
 MD step:           0 time   0.0000000000000000     
 H      0.00000000      0.00000000     -0.37000000      0.01496590     -0.00902217     -0.00916652
 H      0.00000000      0.00000000      0.37000000      0.00716568      0.00046554     -0.00511705
    2
 MD step:          50 time  0.12094421632525000     
 H      0.00181004     -0.00109118     -0.37111518      0.01496597     -0.00902216     -0.00927219
 H      0.00086665      0.00005630      0.36938766      0.00716562      0.00046552     -0.00501138
    2
 MD step:         100 time  0.24188843265050000     
 H      0.00362010     -0.00218239     -0.37224193      0.01496613     -0.00902270     -0.00935658
 H      0.00173328      0.00011264      0.36878690      0.00716546      0.00046607     -0.00492699
    2
 MD step:         150 time  0.36283264897575002     
 H      0.00543018     -0.00327363     -0.37337748      0.01496632     -0.00902274     -0.00941757
 H      0.00259989      0.00016900      0.36819494      0.00716527      0.00046610     -0.00486600
    2
 MD step:         200 time  0.48377686530100000     
 H      0.00724028     -0.00436495     -0.37451896      0.01496648     -0.00902398     -0.00945449
 H      0.00346647      0.00022545      0.36760890      0.00716511      0.00046734     -0.00482908
    2
 MD step:         250 time  0.60472108162625005     
 H      0.00905039     -0.00545636     -0.37566342      0.01496655     -0.00902422     -0.00946691
 H      0.00433305      0.00028198      0.36702585      0.00716504      0.00046759     -0.00481666
    2
 MD step:         300 time  0.72566529795150003     
 H      0.01086051     -0.00654786     -0.37680790      0.01496646     -0.00902539     -0.00945467
 H      0.00519962      0.00033861      0.36644281      0.00716513      0.00046875     -0.00482889
    2
 MD step:         350 time  0.84660951427675002     
 H      0.01267060     -0.00763942     -0.37794941      0.01496616     -0.00902516     -0.00941785
 H      0.00606622      0.00039530      0.36585681      0.00716543      0.00046853     -0.00486571
    2
 MD step:         400 time  0.96755373060200001     
 H      0.01448064     -0.00873096     -0.37908499      0.01496557     -0.00902495     -0.00935681
 H      0.00693287      0.00045196      0.36526488      0.00716602      0.00046831     -0.00492676
    2
 MD step:         450 time   1.0884979469272500     
 H      0.01629058     -0.00982241     -0.38021176      0.01496466     -0.00902380     -0.00927211
 H      0.00779961      0.00050853      0.36466413      0.00716693      0.00046716     -0.00501145
    2
 MD step:         500 time   1.2094421632525001     
 H      0.01810040     -0.01091369     -0.38132689      0.01496336     -0.00902220     -0.00916460
 H      0.00866648      0.00056494      0.36405175      0.00716823      0.00046557     -0.00511897
    2
 MD step:         550 time   1.3303863795777500     
 H      0.01991003     -0.01200480     -0.38242769      0.01496164     -0.00902103     -0.00903532
 H      0.00953353      0.00062118      0.36342503      0.00716994      0.00046440     -0.00524824
    2
 MD step:         600 time   1.4513305959030001     
 H      0.02171943     -0.01309573     -0.38351160      0.01495946     -0.00901921     -0.00888552
 H      0.01040082      0.00067723      0.36278143      0.00717212      0.00046258     -0.00539804
    2
 MD step:         650 time   1.5722748122282502     
 H      0.02352853     -0.01418651     -0.38457623      0.01495680     -0.00901843     -0.00871668
 H      0.01126841      0.00073313      0.36211854      0.00717479      0.00046180     -0.00556688
    2
 MD step:         700 time   1.6932190285535000     
 H      0.02533728     -0.01527710     -0.38561937      0.01495362     -0.00901615     -0.00853040
 H      0.01213634      0.00078885      0.36143416      0.00717797      0.00045951     -0.00575316
    2
 MD step:         750 time   1.8141632448787501     
 H      0.02714562     -0.01636744     -0.38663901      0.01494992     -0.00901398     -0.00832851
 H      0.01300470      0.00084431      0.36072629      0.00718167      0.00045734     -0.00595505
    2
 MD step:         800 time   1.9351074612040000     
 H      0.02895348     -0.01745737     -0.38763338      0.01494571     -0.00900957     -0.00811292
 H      0.01387353      0.00089937      0.35999315      0.00718588      0.00045293     -0.00617065
    2
 MD step:         850 time   2.0560516775292501     
 H      0.03076079     -0.01854672     -0.38860096      0.01494098     -0.00900437     -0.00788571
 H      0.01474290      0.00095385      0.35923321      0.00719061      0.00044774     -0.00639786
    2
 MD step:         900 time   2.1769958938545000     
 H      0.03256751     -0.01963537     -0.38954046      0.01493576     -0.00899805     -0.00764904
 H      0.01561287      0.00100762      0.35844520      0.00719582      0.00044142     -0.00663453
    2
 MD step:         950 time   2.2979401101797499     
 H      0.03437356     -0.02072323     -0.39045088      0.01493008     -0.00899133     -0.00740516
 H      0.01648350      0.00106060      0.35762811      0.00720151      0.00043470     -0.00687840
    2
 MD step:        1000 time   2.4188843265050002     
 H      0.03617890     -0.02181033     -0.39133149      0.01492398     -0.00898566     -0.00715642
 H      0.01735485      0.00111282      0.35678120      0.00720761      0.00042903     -0.00712714
    2
 MD step:        1050 time   2.5398285428302501     
 H      0.03798348     -0.02289673     -0.39218184      0.01491750     -0.00897985     -0.00690514
 H      0.01822696      0.00116435      0.35590403      0.00721409      0.00042322     -0.00737842
    2
 MD step:        1100 time   2.6607727591554999     
 H      0.03978726     -0.02398253     -0.39300176      0.01491070     -0.00897555     -0.00665375
 H      0.01909987      0.00121528      0.35499644      0.00722088      0.00041892     -0.00762981
    2
 MD step:        1150 time   2.7817169754807503     
 H      0.04159020     -0.02506774     -0.39379139      0.01490366     -0.00896986     -0.00640457
 H      0.01997361      0.00126561      0.35405855      0.00722793      0.00041322     -0.00787900
    2
 MD step:        1200 time   2.9026611918060001     
 H      0.04339228     -0.02615226     -0.39455114      0.01489644     -0.00896417     -0.00616001
 H      0.02084823      0.00131525      0.35309079      0.00723515      0.00040754     -0.00812355
    2
 MD step:        1250 time   3.0236054081312500     
 H      0.04519347     -0.02723596     -0.39528170      0.01488912     -0.00895631     -0.00592234
 H      0.02172372      0.00136408      0.35209384      0.00724247      0.00039967     -0.00836122
    2
 MD step:        1300 time   3.1445496244565003     
 H      0.04699378     -0.02831867     -0.39598406      0.01488181     -0.00894785     -0.00569387
 H      0.02260009      0.00141191      0.35106868      0.00724978      0.00039122     -0.00858970
    2
 MD step:        1350 time   3.2654938407817502     
 H      0.04879321     -0.02940033     -0.39665944      0.01487458     -0.00893919     -0.00547675
 H      0.02347735      0.00145870      0.35001655      0.00725701      0.00038256     -0.00880682
    2
 MD step:        1400 time   3.3864380571070001     
 H      0.05059178     -0.03048098     -0.39730936      0.01486755     -0.00893126     -0.00527305
 H      0.02435547      0.00150448      0.34893895      0.00726404      0.00037462     -0.00901051
    2
 MD step:        1450 time   3.5073822734322500     
 H      0.05238951     -0.03156082     -0.39793555      0.01486081     -0.00892591     -0.00508478
 H      0.02523443      0.00154943      0.34783763      0.00727078      0.00036928     -0.00919879
    2
 MD step:        1500 time   3.6283264897575003     
 H      0.05418646     -0.03264008     -0.39854000      0.01485448     -0.00892170     -0.00491368
 H      0.02611417      0.00159383      0.34671456      0.00727711      0.00036507     -0.00936989
    2
 MD step:        1550 time   3.7492707060827501     
 H      0.05598266     -0.03371900     -0.39912488      0.01484865     -0.00892004     -0.00476147
 H      0.02699466      0.00163787      0.34557193      0.00728294      0.00036341     -0.00952210
    2
 MD step:        1600 time   3.8702149224080000     
 H      0.05777820     -0.03479769     -0.39969256      0.01484343     -0.00891771     -0.00462952
 H      0.02787581      0.00168168      0.34441209      0.00728815      0.00036108     -0.00965405
    2
 MD step:        1650 time   3.9911591387332503     
 H      0.05957314     -0.03587613     -0.40024558      0.01483893     -0.00891581     -0.00451919
 H      0.02875755      0.00172524      0.34323760      0.00729266      0.00035918     -0.00976438
    2
 MD step:        1700 time   4.1121033550585002     
 H      0.06136760     -0.03695425     -0.40078661      0.01483524     -0.00891245     -0.00443146
 H      0.02963978      0.00176849      0.34205111      0.00729635      0.00035582     -0.00985210
    2
 MD step:        1750 time   4.2330475713837501     
 H      0.06316165     -0.03803196     -0.40131844      0.01483246     -0.00890935     -0.00436723
 H      0.03052241      0.00181133      0.34085543      0.00729913      0.00035272     -0.00991634
    2
 MD step:        1800 time   4.3539917877090000     
 H      0.06495544     -0.03910937     -0.40184396      0.01483067     -0.00890755     -0.00432711
 H      0.03140532      0.00185386      0.33965344      0.00730091      0.00035092     -0.00995646
    2
 MD step:        1850 time   4.4749360040342498     
 H      0.06674907     -0.04018668     -0.40236610      0.01482996     -0.00890801     -0.00431143
 H      0.03228838      0.00189630      0.33844807      0.00730163      0.00035138     -0.00997213
    2
 MD step:        1900 time   4.5958802203594997     
 H      0.06854268     -0.04126430     -0.40288784      0.01483038     -0.00891272     -0.00432040
 H      0.03317145      0.00193904      0.33724229      0.00730121      0.00035609     -0.00996317
    2
 MD step:        1950 time   4.7168244366847505     
 H      0.07033641     -0.04234264     -0.40341214      0.01483200     -0.00891977     -0.00435376
 H      0.03405441      0.00198251      0.33603907      0.00729959      0.00036314     -0.00992981
    2
 MD step:        2000 time   4.8377686530100004     
 H      0.07213042     -0.04342204     -0.40394194      0.01483486     -0.00893011     -0.00441122
 H      0.03493709      0.00202703      0.33484136      0.00729673      0.00037347     -0.00987234
    2
 MD step:        2050 time   4.9587128693352502     
 H      0.07392484     -0.04450269     -0.40448010      0.01483898     -0.00894004     -0.00449199
 H      0.03581935      0.00207281      0.33365201      0.00729261      0.00038341     -0.00979157
    2
 MD step:        2100 time   5.0796570856605001     
 H      0.07571985     -0.04558457     -0.40502941      0.01484438     -0.00895045     -0.00459528
 H      0.03670103      0.00211981      0.33247380      0.00728721      0.00039382     -0.00968829
    2
 MD step:        2150 time   5.2006013019857500     
 H      0.07751558     -0.04666764     -0.40559250      0.01485105     -0.00895964     -0.00471982
 H      0.03758199      0.00216800      0.33130938      0.00728054      0.00040301     -0.00956374
    2
 MD step:        2200 time   5.3215455183109999     
 H      0.07931220     -0.04775184     -0.40617188      0.01485898     -0.00896949     -0.00486431
 H      0.03846206      0.00221733      0.33016124      0.00727261      0.00041286     -0.00941926
    2
 MD step:        2250 time   5.4424897346362506     
 H      0.08110984     -0.04883734     -0.40676986      0.01486812     -0.00898145     -0.00502714
 H      0.03934110      0.00226796      0.32903171      0.00726347      0.00042482     -0.00925642
    2
 MD step:        2300 time   5.5634339509615005     
 H      0.08290867     -0.04992446     -0.40738856      0.01487842     -0.00899638     -0.00520648
 H      0.04021896      0.00232020      0.32792289      0.00725317      0.00043975     -0.00907708
    2
 MD step:        2350 time   5.6843781672867504     
 H      0.08470880     -0.05101367     -0.40802984      0.01488980     -0.00901606     -0.00540042
 H      0.04109551      0.00237454      0.32683666      0.00724179      0.00045943     -0.00888315
    2
 MD step:        2400 time   5.8053223836120003     
 H      0.08651038     -0.05210541     -0.40869535      0.01490218     -0.00903792     -0.00560664
 H      0.04197063      0.00243140      0.32577465      0.00722941      0.00048129     -0.00867693
    2
 MD step:        2450 time   5.9262665999372501     
 H      0.08831350     -0.05319996     -0.40938643      0.01491543     -0.00906225     -0.00582294
 H      0.04284419      0.00249108      0.32473822      0.00721616      0.00050562     -0.00846062
    2
 MD step:        2500 time   6.0472108162625000     
 H      0.09011828     -0.05429737     -0.41010415      0.01492944     -0.00908496     -0.00604671
 H      0.04371610      0.00255361      0.32372842      0.00720215      0.00052832     -0.00823685
    2
 MD step:        2550 time   6.1681550325877499     
 H      0.09192479     -0.05539748     -0.41084927      0.01494406     -0.00910663     -0.00627556
 H      0.04458628      0.00261885      0.32274602      0.00718753      0.00054999     -0.00800801
    2
 MD step:        2600 time   6.2890992489130007     
 H      0.09373309     -0.05650005     -0.41162223      0.01495913     -0.00912590     -0.00650675
 H      0.04545466      0.00268654      0.32179147      0.00717246      0.00056927     -0.00777681
    2
 MD step:        2650 time   6.4100434652382505     
 H      0.09554324     -0.05760492     -0.41242317      0.01497449     -0.00914485     -0.00673779
 H      0.04632121      0.00275653      0.32086490      0.00715710      0.00058821     -0.00754577
    2
 MD step:        2700 time   6.5309876815635004     
 H      0.09735525     -0.05871215     -0.41325191      0.01498995     -0.00916521     -0.00696604
 H      0.04718588      0.00282889      0.31996612      0.00714163      0.00060858     -0.00731752
    2
 MD step:        2750 time   6.6519318978887503     
 H      0.09916913     -0.05982196     -0.41410796      0.01500535     -0.00918779     -0.00718895
 H      0.04804869      0.00290382      0.31909466      0.00712624      0.00063116     -0.00709462
    2
 MD step:        2800 time   6.7728761142140002     
 H      0.10098486     -0.06093473     -0.41499052      0.01502049     -0.00921380     -0.00740403
 H      0.04890965      0.00298172      0.31824970      0.00711110      0.00065716     -0.00687953
    2
 MD step:        2850 time   6.8938203305392500     
 H      0.10280240     -0.06205067     -0.41589849      0.01503516     -0.00924031     -0.00760878
 H      0.04976880      0.00306278      0.31743016      0.00709643      0.00068368     -0.00667478
    2
 MD step:        2900 time   7.0147645468644999     
 H      0.10462167     -0.06316986     -0.41683049      0.01504918     -0.00926662     -0.00780097
 H      0.05062622      0.00314710      0.31663464      0.00708241      0.00070999     -0.00648260
    2
 MD step:        2950 time   7.1357087631897507     
 H      0.10644258     -0.06429198     -0.41778485      0.01506235     -0.00928883     -0.00797830
 H      0.05148199      0.00323434      0.31586149      0.00706924      0.00073220     -0.00630527
    2
 MD step:        3000 time   7.2566529795150005     
 H      0.10826503     -0.06541657     -0.41875967      0.01507448     -0.00930717     -0.00813888
 H      0.05233623      0.00332406      0.31510880      0.00705711      0.00075054     -0.00614469
    2
 MD step:        3050 time   7.3775971958402504     
 H      0.11008888     -0.06654309     -0.41975280      0.01508539     -0.00932113     -0.00828086
 H      0.05318907      0.00341570      0.31437441      0.00704620      0.00076449     -0.00600271
    2
 MD step:        3100 time   7.4985414121655003     
 H      0.11191396     -0.06767116     -0.42076191      0.01509492     -0.00933308     -0.00840276
 H      0.05404068      0.00350890      0.31365600      0.00703667      0.00077645     -0.00588081
    2
 MD step:        3150 time   7.6194856284907502     
 H      0.11374010     -0.06880067     -0.42178447      0.01510290     -0.00934517     -0.00850326
 H      0.05489122      0.00360353      0.31295105      0.00702869      0.00078854     -0.00578031
    2
 MD step:        3200 time   7.7404298448160000     
 H      0.11556711     -0.06993168     -0.42281784      0.01510919     -0.00935837     -0.00858125
 H      0.05574090      0.00369967      0.31225691      0.00702240      0.00080174     -0.00570231
    2
 MD step:        3250 time   7.8613740611412499     
 H      0.11739477     -0.07106443     -0.42385924      0.01511368     -0.00937315     -0.00863595
 H      0.05658993      0.00379754      0.31157079      0.00701791      0.00081652     -0.00564761
    2
 MD step:        3300 time   7.9823182774665007     
 H      0.11922285     -0.07219888     -0.42490580      0.01511623     -0.00938661     -0.00866661
 H      0.05743853      0.00389711      0.31088984      0.00701536      0.00082998     -0.00561695
    2
 MD step:        3350 time   8.1032624937917497     
 H      0.12105113     -0.07333484     -0.42595461      0.01511676     -0.00939715     -0.00867297
 H      0.05828695      0.00399820      0.31021114      0.00701482      0.00084051     -0.00561059
    2
 MD step:        3400 time   8.2242067101170004     
 H      0.12287934     -0.07447168     -0.42700270      0.01511519     -0.00940145     -0.00865473
 H      0.05913542      0.00410016      0.30953171      0.00701639      0.00084482     -0.00562883
    2
 MD step:        3450 time   8.3451509264422494     
 H      0.12470723     -0.07560870     -0.42804711      0.01511148     -0.00939982     -0.00861219
 H      0.05998422      0.00420231      0.30884861      0.00702011      0.00084319     -0.00567137
    2
 MD step:        3500 time   8.4660951427675002     
 H      0.12653454     -0.07674517     -0.42908492      0.01510559     -0.00939284     -0.00854562
 H      0.06083359      0.00430390      0.30815890      0.00702600      0.00083621     -0.00573794
    2
 MD step:        3550 time   8.5870393590927510     
 H      0.12836101     -0.07788062     -0.43011327      0.01509753     -0.00938350     -0.00845585
 H      0.06168381      0.00440448      0.30745973      0.00703406      0.00082687     -0.00582772
    2
 MD step:        3600 time   8.7079835754179999     
 H      0.13018637     -0.07901495     -0.43112939      0.01508732     -0.00937442     -0.00834368
 H      0.06253514      0.00450393      0.30674834      0.00704427      0.00081779     -0.00593988
    2
 MD step:        3650 time   8.8289277917432507     
 H      0.13201037     -0.08014823     -0.43213065      0.01507500     -0.00936665     -0.00821030
 H      0.06338782      0.00460234      0.30602209      0.00705659      0.00081001     -0.00607327
    2
 MD step:        3700 time   8.9498720080684997     
 H      0.13383276     -0.08128070     -0.43311456      0.01506064     -0.00936021     -0.00805696
 H      0.06424213      0.00469993      0.30527849      0.00707094      0.00080358     -0.00622660
    2
 MD step:        3750 time   9.0708162243937505     
 H      0.13565329     -0.08241227     -0.43407879      0.01504433     -0.00935192     -0.00788509
 H      0.06509828      0.00479663      0.30451520      0.00708725      0.00079528     -0.00639848
    2
 MD step:        3800 time   9.1917604407189994     
 H      0.13747174     -0.08354268     -0.43502120      0.01502618     -0.00933995     -0.00769634
 H      0.06595652      0.00489216      0.30373009      0.00710541      0.00078332     -0.00658722
    2
 MD step:        3850 time   9.3127046570442502     
 H      0.13928788     -0.08467122     -0.43593983      0.01500631     -0.00932138     -0.00749240
 H      0.06681707      0.00498583      0.30292121      0.00712528      0.00076475     -0.00679116
    2
 MD step:        3900 time   9.4336488733695010     
 H      0.14110152     -0.08579719     -0.43683299      0.01498487     -0.00929725     -0.00727532
 H      0.06768011      0.00507692      0.30208685      0.00714671      0.00074062     -0.00700825
    2
 MD step:        3950 time   9.5545930896947500     
 H      0.14291249     -0.08691996     -0.43769920      0.01496205     -0.00926911     -0.00704712
 H      0.06854583      0.00516481      0.30122555      0.00716954      0.00071247     -0.00723644
    2
 MD step:        4000 time   9.6755373060200007     
 H      0.14472062     -0.08803926     -0.43853725      0.01493805     -0.00924061     -0.00681009
 H      0.06941439      0.00524924      0.30033609      0.00719354      0.00068397     -0.00747347
    2
 MD step:        4050 time   9.7964815223452497     
 H      0.14652579     -0.08915528     -0.43934622      0.01491307     -0.00921487     -0.00656654
 H      0.07028591      0.00533038      0.29941754      0.00721852      0.00065824     -0.00771702
    2
 MD step:        4100 time   9.9174257386705005     
 H      0.14832789     -0.09026836     -0.44012545      0.01488733     -0.00919248     -0.00631873
 H      0.07116049      0.00540859      0.29846926      0.00724425      0.00063585     -0.00796483
    2
 MD step:        4150 time   10.038369954995749     
 H      0.15012685     -0.09137898     -0.44087458      0.01486109     -0.00917335     -0.00606910
 H      0.07203823      0.00548434      0.29749087      0.00727050      0.00061671     -0.00821447
    2
 MD step:        4200 time   10.159314171321000     
 H      0.15192261     -0.09248724     -0.44159350      0.01483456     -0.00915342     -0.00581975
 H      0.07291915      0.00555772      0.29648228      0.00729703      0.00059679     -0.00846381
    2
 MD step:        4250 time   10.280258387646251     
 H      0.15371516     -0.09359301     -0.44228242      0.01480801     -0.00913123     -0.00557318
 H      0.07380329      0.00562861      0.29544368      0.00732358      0.00057460     -0.00871039
    2
 MD step:        4300 time   10.401202603971500     
 H      0.15550450     -0.09469576     -0.44294179      0.01478167     -0.00910395     -0.00533144
 H      0.07469063      0.00569649      0.29437553      0.00734992      0.00054731     -0.00895213
    2
 MD step:        4350 time   10.522146820296751     
 H      0.15729069     -0.09579502     -0.44357233      0.01475583     -0.00907359     -0.00509702
 H      0.07558113      0.00576088      0.29327856      0.00737576      0.00051695     -0.00918655
    2
 MD step:        4400 time   10.643091036622000     
 H      0.15907380     -0.09689053     -0.44417507      0.01473073     -0.00904253     -0.00487202
 H      0.07647472      0.00582151      0.29215379      0.00740085      0.00048590     -0.00941154
    2
 MD step:        4450 time   10.764035252947250     
 H      0.16085393     -0.09798243     -0.44475129      0.01470667     -0.00901477     -0.00465874
 H      0.07737127      0.00587854      0.29100249      0.00742491      0.00045814     -0.00962483
    2
 MD step:        4500 time   10.884979469272501     
 H      0.16263122     -0.09907138     -0.44530252      0.01468391     -0.00899367     -0.00445922
 H      0.07827066      0.00593261      0.28982621      0.00744768      0.00043704     -0.00982435
    2
 MD step:        4550 time   11.005923685597750     
 H      0.16440586     -0.10015814     -0.44583055      0.01466268     -0.00897889     -0.00427530
 H      0.07917272      0.00598450      0.28862672      0.00746890      0.00042226     -0.01000827
    2
 MD step:        4600 time   11.126867901923001     
 H      0.16617803     -0.10124353     -0.44633737      0.01464326     -0.00896999     -0.00410878
 H      0.08007723      0.00603501      0.28740603      0.00748833      0.00041336     -0.01017478
    2
 MD step:        4650 time   11.247812118248250     
 H      0.16794797     -0.10232790     -0.44682517      0.01462582     -0.00896201     -0.00396100
 H      0.08098398      0.00608450      0.28616632      0.00750577      0.00040538     -0.01032256
    2
 MD step:        4700 time   11.368756334573501     
 H      0.16971594     -0.10341133     -0.44729631      0.01461061     -0.00895361     -0.00383346
 H      0.08189270      0.00613306      0.28490994      0.00752098      0.00039697     -0.01045010
    2
 MD step:        4750 time   11.489700550898750     
 H      0.17148220     -0.10449354     -0.44775329      0.01459779     -0.00894225     -0.00372714
 H      0.08280312      0.00618039      0.28363941      0.00753380      0.00038561     -0.01055642
    2
 MD step:        4800 time   11.610644767224001     
 H      0.17324708     -0.10557434     -0.44819877      0.01458756     -0.00893060     -0.00364323
 H      0.08371494      0.00622632      0.28235737      0.00754403      0.00037396     -0.01064033
    2
 MD step:        4850 time   11.731588983549251     
 H      0.17501088     -0.10665386     -0.44863549      0.01458008     -0.00892170     -0.00358250
 H      0.08462782      0.00627096      0.28106657      0.00755151      0.00036506     -0.01070107
    2
 MD step:        4900 time   11.852533199874500     
 H      0.17677395     -0.10773266     -0.44906629      0.01457549     -0.00891945     -0.00354559
 H      0.08554144      0.00631489      0.27976986      0.00755610      0.00036281     -0.01073798
    2
 MD step:        4950 time   11.973477416199751     
 H      0.17853664     -0.10881178     -0.44949410      0.01457390     -0.00892688     -0.00353294
 H      0.08645544      0.00635913      0.27847016      0.00755769      0.00037025     -0.01075062
    2
 MD step:        5000 time   12.094421632525000     
 H      0.18029933     -0.10989229     -0.44992184      0.01457537     -0.00894258     -0.00354445
 H      0.08736944      0.00640477      0.27717038      0.00755622      0.00038595     -0.01073911
    2
 MD step:        5050 time   12.215365848850251     
 H      0.18206238     -0.11097518     -0.45035244      0.01457994     -0.00896513     -0.00358006
 H      0.08828307      0.00645278      0.27587347      0.00755165      0.00040850     -0.01070351
    2
 MD step:        5100 time   12.336310065175500     
 H      0.18382617     -0.11206088     -0.45078875      0.01458759     -0.00898890     -0.00363894
 H      0.08919597      0.00650361      0.27458227      0.00754400      0.00043227     -0.01064463
    2
 MD step:        5150 time   12.457254281500751     
 H      0.18559107     -0.11314948     -0.45123358      0.01459829     -0.00901224     -0.00372057
 H      0.09010776      0.00655733      0.27329957      0.00753329      0.00045561     -0.01056299
    2
 MD step:        5200 time   12.578198497826001     
 H      0.18735745     -0.11424073     -0.45168958      0.01461196     -0.00903312     -0.00382373
 H      0.09101807      0.00661371      0.27202807      0.00751963      0.00047649     -0.01045983
    2
 MD step:        5250 time   12.699142714151250     
 H      0.18912565     -0.11533451     -0.45215932      0.01462852     -0.00905450     -0.00394749
 H      0.09192655      0.00667261      0.27077029      0.00750307      0.00049786     -0.01033607
    2
 MD step:        5300 time   12.820086930476501     
 H      0.19089603     -0.11643107     -0.45264521      0.01464783     -0.00907978     -0.00409039
 H      0.09283286      0.00673430      0.26952866      0.00748376      0.00052315     -0.01019317
    2
 MD step:        5350 time   12.941031146801750     
 H      0.19266890     -0.11753110     -0.45314945      0.01466975     -0.00911258     -0.00425099
 H      0.09373668      0.00679945      0.26830540      0.00746184      0.00055595     -0.01003258
    2
 MD step:        5400 time   13.061975363127001     
 H      0.19444457     -0.11863570     -0.45367411      0.01469407     -0.00915489     -0.00442748
 H      0.09463770      0.00686917      0.26710254      0.00743752      0.00059825     -0.00985609
    2
 MD step:        5450 time   13.182919579452250     
 H      0.19622331     -0.11974584     -0.45422097      0.01472055     -0.00920440     -0.00461777
 H      0.09553564      0.00694444      0.26592188      0.00741104      0.00064777     -0.00966579
    2
 MD step:        5500 time   13.303863795777501     
 H      0.19800537     -0.12086231     -0.45479157      0.01474891     -0.00925804     -0.00481967
 H      0.09643027      0.00702604      0.26476496      0.00738267      0.00070141     -0.00946389
    2
 MD step:        5550 time   13.424808012102751     
 H      0.19979096     -0.12198518     -0.45538715      0.01477884     -0.00931016     -0.00503064
 H      0.09732136      0.00711404      0.26363304      0.00735275      0.00075353     -0.00925293
    2
 MD step:        5600 time   13.545752228428000     
 H      0.20158025     -0.12311418     -0.45600869      0.01481000     -0.00935836     -0.00524828
 H      0.09820876      0.00720815      0.26252706      0.00732159      0.00080172     -0.00903528
    2
 MD step:        5650 time   13.666696444753251     
 H      0.20337337     -0.12424866     -0.45665682      0.01484205     -0.00940163     -0.00547001
 H      0.09909233      0.00730776      0.26144767      0.00728954      0.00084500     -0.00881356
    2
 MD step:        5700 time   13.787640661078500     
 H      0.20517040     -0.12538824     -0.45733189      0.01487465     -0.00944308     -0.00569347
 H      0.09997199      0.00741247      0.26039523      0.00725693      0.00088644     -0.00859009
    2
 MD step:        5750 time   13.908584877403751     
 H      0.20697138     -0.12653292     -0.45803397      0.01490745     -0.00948645     -0.00591617
 H      0.10084769      0.00752227      0.25936980      0.00722414      0.00092982     -0.00836740
    2
 MD step:        5800 time   14.029529093729000     
 H      0.20877633     -0.12768312     -0.45876282      0.01494007     -0.00953523     -0.00613573