    2
 MD step:           0 time   0.0000000000000000     
 H      0.00000000      0.00000000     -0.37000000      0.00112570     -0.05048435      0.02162717
 H      0.00000000      0.00000000      0.37000000     -0.03442508      0.01274745     -0.01558175
    2
 MD step:          50 time  0.12094421632525000     
 H      0.00013619     -0.00610586     -0.36740288      0.00112706     -0.05048675      0.02110528
 H     -0.00416355      0.00154180      0.36813404     -0.03442644      0.01274986     -0.01505985
    2
 MD step:         100 time  0.24188843265050000     
 H      0.00027299     -0.01221281     -0.36493967      0.00113734     -0.05050504      0.01964902
 H     -0.00832772      0.00308470      0.36640199     -0.03443672      0.01276815     -0.01360360
    2
 MD step:         150 time  0.36283264897575002     
 H      0.00041175     -0.01832325     -0.36268003      0.00115829     -0.05054231      0.01766444
 H     -0.01249385      0.00463107      0.36487350     -0.03445767      0.01280541     -0.01161902
    2
 MD step:         200 time  0.48377686530100000     
 H      0.00055307     -0.02443824     -0.36061172      0.00117815     -0.05057762      0.01663187
 H     -0.01666254      0.00618200      0.36353636     -0.03447752      0.01284073     -0.01058644
    2
 MD step:         250 time  0.60472108162625005     
 H      0.00069694     -0.03055776     -0.35866624      0.00120440     -0.05062432      0.01538643
 H     -0.02083377      0.00773747      0.36232203     -0.03450378      0.01288743     -0.00934101
    2
 MD step:         300 time  0.72566529795150003     
 H      0.00084557     -0.03668576     -0.35690802      0.00125934     -0.05072203      0.01355502
 H     -0.02500977      0.00930141      0.36129498     -0.03455871      0.01298513     -0.00750960
    2
 MD step:         350 time  0.84660951427675002     
 H      0.00100237     -0.04282829     -0.35542835      0.00133343     -0.05085381      0.01110872
 H     -0.02919394      0.01087987      0.36054646     -0.03463281      0.01311691     -0.00506330
    2
 MD step:         400 time  0.96755373060200001     
 H      0.00116741     -0.04898546     -0.35417388      0.00139376     -0.05096112      0.00965094
 H     -0.03338635      0.01247299      0.36002315     -0.03469314      0.01322422     -0.00360552
    2
 MD step:         450 time   1.0884979469272500     
 H      0.00133972     -0.05515557     -0.35309534      0.00146113     -0.05108095      0.00811945
 H     -0.03758602      0.01407903      0.35967577     -0.03476051      0.01334405     -0.00207402
    2
 MD step:         500 time   1.2094421632525001     
 H      0.00152267     -0.06134460     -0.35223191      0.00157195     -0.05127806      0.00587149
 H     -0.04179634      0.01570401      0.35954350     -0.03487133      0.01354116      0.00017393
    2
 MD step:         550 time   1.3303863795777500     
 H      0.00172038     -0.06755990     -0.35167107      0.00169271     -0.05149284      0.00368034
 H     -0.04602142      0.01735525      0.35971382     -0.03499209      0.01375595      0.00236508
    2
 MD step:         600 time   1.4513305959030001     
 H      0.00193069     -0.07379758     -0.35132216      0.00177984     -0.05164782      0.00218112
 H     -0.05025909      0.01902887      0.36009607     -0.03507922      0.01391093      0.00386430
    2
 MD step:         650 time   1.5722748122282502     
 H      0.00215118     -0.08005339     -0.35113631      0.00187238     -0.05181240      0.00088312
 H     -0.05450695      0.02072062      0.36064138     -0.03517176      0.01407551      0.00516230
    2
 MD step:         700 time   1.6932190285535000     
 H      0.00238591     -0.08633452     -0.35115771      0.00201489     -0.05206589     -0.00139799
 H     -0.05876905      0.02243770      0.36139393     -0.03531427      0.01432899      0.00744341
    2
 MD step:         750 time   1.8141632448787501     
 H      0.00263813     -0.09264677     -0.35143364      0.00214672     -0.05230036     -0.00307137
 H     -0.06304864      0.02418588      0.36240102     -0.03544610      0.01456346      0.00911679
    2
 MD step:         800 time   1.9351074612040000     
 H      0.00290276     -0.09898108     -0.35188020      0.00222017     -0.05243100     -0.00412225
 H     -0.06734064      0.02595613      0.36357874     -0.03551955      0.01469410      0.01016767
    2
 MD step:         850 time   2.0560516775292501     
 H      0.00317496     -0.10532886     -0.35241701      0.00228746     -0.05255069     -0.00484827
 H     -0.07164020      0.02773985      0.36484671     -0.03558684      0.01481379      0.01089369
    2
 MD step:         900 time   2.1769958938545000     
 H      0.00345834     -0.11169651     -0.35310303      0.00240341     -0.05275692     -0.00643878
 H     -0.07595095      0.02954345      0.36626389     -0.03570279      0.01502002      0.01248420
    2
 MD step:         950 time   2.2979401101797499     
 H      0.00375584     -0.11808930     -0.35395657      0.00250584     -0.05293910     -0.00773174
 H     -0.08027582      0.03137217      0.36784858     -0.03580522      0.01520221      0.01377716
    2
 MD step:        1000 time   2.4188843265050002     
 H      0.00406097     -0.12449565     -0.35492581      0.00252449     -0.05297227     -0.00805435
 H     -0.08460832      0.03321446      0.36954898     -0.03582387      0.01523537      0.01409977
    2
 MD step:        1050 time   2.5398285428302501     
 H      0.00436472     -0.13089954     -0.35589463      0.00249982     -0.05292840     -0.00806090
 H     -0.08893943      0.03505430      0.37124897     -0.03579920      0.01519151      0.01410632
    2
 MD step:        1100 time   2.6607727591554999     
 H      0.00466723     -0.13730122     -0.35689162      0.00251123     -0.05294870     -0.00837849
 H     -0.09326931      0.03689192      0.37297711     -0.03581061      0.01521180      0.01442391
    2
 MD step:        1150 time   2.7817169754807503     
 H      0.00497333     -0.14370931     -0.35795601      0.00254610     -0.05301072     -0.00928159
 H     -0.09760278      0.03873595      0.37477266     -0.03584548      0.01527382      0.01532701
    2
 MD step:        1200 time   2.9026611918060001     
 H      0.00528043     -0.15011916     -0.35908198      0.00251236     -0.05295071     -0.00921399
 H     -0.10193725      0.04058174      0.37662979     -0.03581174      0.01521381      0.01525941
    2
 MD step:        1250 time   3.0236054081312500     
 H      0.00557698     -0.15651024     -0.36017186      0.00237709     -0.05271011     -0.00864446
 H     -0.10626116      0.04240876      0.37845083     -0.03567647      0.01497321      0.01468988
    2
 MD step:        1300 time   3.1445496244565003     
 H      0.00585403     -0.16286664     -0.36115147      0.00220697     -0.05240752     -0.00760472
 H     -0.11056558      0.04420110      0.38016159     -0.03550635      0.01467063      0.01365014
    2
 MD step:        1350 time   3.2654938407817502     
 H      0.00611280     -0.16919053     -0.36205396      0.00207881     -0.05217957     -0.00732195
 H     -0.11485171      0.04596093      0.38179524     -0.03537819      0.01444268      0.01336737
    2
 MD step:        1400 time   3.3864380571070001     
 H      0.00635871     -0.17549155     -0.36291729      0.00198291     -0.05200901     -0.00712266
 H     -0.11912500      0.04769790      0.38338974     -0.03528229      0.01427211      0.01316808
    2
 MD step:        1450 time   3.5073822734322500     
 H      0.00659025     -0.18176700     -0.36376694      0.00183168     -0.05174002     -0.00664204
 H     -0.12338390      0.04940928      0.38497054     -0.03513106      0.01400313      0.01268746
    2
 MD step:        1500 time   3.6283264897575003     
 H      0.00679663     -0.18799771     -0.36450301      0.00156416     -0.05126419     -0.00551663
 H     -0.12761765      0.05107594      0.38643777     -0.03486354      0.01352730      0.01156205
    2
 MD step:        1550 time   3.7492707060827501     
 H      0.00696531     -0.19416137     -0.36506815      0.00121875     -0.05064985     -0.00373475
 H     -0.13181370      0.05267554      0.38773407     -0.03451813      0.01291295      0.00978017
    2
 MD step:        1600 time   3.8702149224080000     
 H      0.00709181     -0.20025000     -0.36542333      0.00088052     -0.05004825     -0.00231748
 H     -0.13596756      0.05420010      0.38882041     -0.03417990      0.01231136      0.00836290
    2
 MD step:        1650 time   3.9911591387332503     
 H      0.00718054     -0.20627145     -0.36562875      0.00060281     -0.04955431     -0.00108414
 H     -0.14008366      0.05565750      0.38975699     -0.03390219      0.01181741      0.00712956
    2
 MD step:        1700 time   4.1121033550585002     
 H      0.00723823     -0.21223770     -0.36572867      0.00034886     -0.04910263     -0.00057122
 H     -0.14416872      0.05705968      0.39058806     -0.03364824      0.01136573      0.00661664
    2
 MD step:        1750 time   4.2330475713837501     
 H      0.00726431     -0.21814771     -0.36572762      0.00006090     -0.04859045      0.00058496
 H     -0.14822216      0.05840564      0.39131818     -0.03336028      0.01085356      0.00546046
    2
 MD step:        1800 time   4.3539917877090000     
 H      0.00724859     -0.22398339     -0.36558540     -0.00033663     -0.04788340      0.00200612
 H     -0.15223381      0.05967726      0.39190711     -0.03296275      0.01014650      0.00403930
    2
 MD step:        1850 time   4.4749360040342498     
 H      0.00717851     -0.22972237     -0.36521078     -0.00083427     -0.04699828      0.00413658
 H     -0.15619110      0.06085218      0.39226365     -0.03246511      0.00926139      0.00190884
    2
 MD step:        1900 time   4.5958802203594997     
 H      0.00704561     -0.23534962     -0.36458728     -0.00136140     -0.04606071      0.00624530
 H     -0.16008556      0.06191537      0.39237131     -0.03193798      0.00832381     -0.00019988
    2
 MD step:        1950 time   4.7168244366847505     
 H      0.00685158     -0.24086815     -0.36370903     -0.00183532     -0.04521778      0.00804240
 H     -0.16391890      0.06286984      0.39222422     -0.03146406      0.00748088     -0.00199698
    2
 MD step:        2000 time   4.8377686530100004     
 H      0.00660396     -0.24629136     -0.36265863     -0.00223891     -0.04449993      0.00941631
 H     -0.16769865      0.06372899      0.39190498     -0.03106047      0.00676303     -0.00337089
    2
 MD step:        2050 time   4.9587128693352502     
 H      0.00631119     -0.25163426     -0.36145957     -0.00261280     -0.04383493      0.01028345
 H     -0.17143324      0.06450783      0.39143708     -0.03068658      0.00609803     -0.00423803
    2
 MD step:        2100 time   5.0796570856605001     
 H      0.00597227     -0.25689508     -0.36013799     -0.00300721     -0.04313340      0.01169194
 H     -0.17512169      0.06520460      0.39084665     -0.03029216      0.00539651     -0.00564652
    2
 MD step:        2150 time   5.2006013019857500     
 H      0.00557837     -0.26205811     -0.35864162     -0.00351855     -0.04222392      0.01316514
 H     -0.17875516      0.06580356      0.39008144     -0.02978083      0.00448703     -0.00711972
    2
 MD step:        2200 time   5.3215455183109999     
 H      0.00511714     -0.26710139     -0.35690936     -0.00412359     -0.04114778      0.01547584
 H     -0.18232130      0.06628279      0.38908034     -0.02917579      0.00341088     -0.00943042
    2
 MD step:        2250 time   5.4424897346362506     
 H      0.00457928     -0.27200836     -0.35491003     -0.00477017     -0.03999775      0.01762254
 H     -0.18581081      0.06662570      0.38781217     -0.02852921      0.00226086     -0.01157712
    2
 MD step:        2300 time   5.5634339509615005     
 H      0.00396538     -0.27678009     -0.35263976     -0.00536611     -0.03893780      0.01976365
 H     -0.18922427      0.06683337      0.38627306     -0.02793327      0.00120090     -0.01371823
    2
 MD step:        2350 time   5.6843781672867504     
 H      0.00328408     -0.28143196     -0.35016845     -0.00588216     -0.03801992      0.02116391
 H     -0.19257035      0.06692117      0.38453291     -0.02741721      0.00028303     -0.01511849
    2
 MD step:        2400 time   5.8053223836120003     
 H      0.00254705     -0.28598467     -0.34752935     -0.00631170     -0.03725593      0.02226556
 H     -0.19586068      0.06690983      0.38262497     -0.02698768     -0.00048097     -0.01622014
    2
 MD step:        2450 time   5.9262665999372501     
 H      0.00175782     -0.29044456     -0.34477824     -0.00673691     -0.03649964      0.02341995
 H     -0.19909882      0.06680566      0.38060502     -0.02656247     -0.00123726     -0.01737452
    2
 MD step:        2500 time   6.0472108162625000     
 H      0.00091239     -0.29480449     -0.34186745     -0.00725807     -0.03557268      0.02468550
 H     -0.20228076      0.06660153      0.37842538     -0.02604130     -0.00216421     -0.01864008
    2
 MD step:        2550 time   6.1681550325877499     
 H     -0.00000130     -0.29904299     -0.33876435     -0.00786949     -0.03448520      0.02672157
 H     -0.20539443      0.06627597      0.37605344     -0.02542989     -0.00325169     -0.02067615
    2
 MD step:        2600 time   6.2890992489130007     
 H     -0.00099324     -0.30314233     -0.33541525     -0.00853403     -0.03330323      0.02864210
 H     -0.20842985      0.06581125      0.37343550     -0.02476535     -0.00443366     -0.02259668
    2
 MD step:        2650 time   6.4100434652382505     
 H     -0.00206356     -0.30710226     -0.33182835     -0.00914731     -0.03221243      0.03062477
 H     -0.21138690      0.06520712      0.37057977     -0.02415207     -0.00552446     -0.02457935
    2
 MD step:        2700 time   6.5309876815635004     
 H     -0.00320120     -0.31094245     -0.32805563     -0.00964918     -0.03131978      0.03169766
 H     -0.21427663      0.06448325      0.36753821     -0.02365020     -0.00641711     -0.02565224
    2
 MD step:        2750 time   6.6519318978887503     
 H     -0.00439183     -0.31468839     -0.32415386     -0.01003366     -0.03063593      0.03266654
 H     -0.21711337      0.06366513      0.36436759     -0.02326572     -0.00710096     -0.02662112
    2
 MD step:        2800 time   6.7728761142140002     
 H     -0.00562864     -0.31835220     -0.32017253     -0.01041636     -0.02995526      0.03336535
 H     -0.21990393      0.06276488      0.36111742     -0.02288302     -0.00778164     -0.02731993
    2
 MD step:        2850 time   6.8938203305392500     
 H     -0.00691572     -0.32192658     -0.31606506     -0.01088344     -0.02912448      0.03448544
 H     -0.22264421      0.06177520      0.35774111     -0.02241593     -0.00861241     -0.02844002
    2
 MD step:        2900 time   7.0147645468644999     
 H     -0.00826413     -0.32539189     -0.31180789     -0.01142194     -0.02816669      0.03601453
 H     -0.22532317      0.06067646      0.35421510     -0.02187743     -0.00957021     -0.02996910
    2
 MD step:        2950 time   7.1357087631897507     
 H     -0.00967739     -0.32874185     -0.30736337     -0.01193123     -0.02726086      0.03733389
 H     -0.22793728      0.05946236      0.35050173     -0.02136815     -0.01047603     -0.03128847
    2
 MD step:        3000 time   7.2566529795150005     
 H     -0.01114454     -0.33199596     -0.30279486     -0.01229944     -0.02660594      0.03822492
 H     -0.23049749      0.05815241      0.34666438     -0.02099994     -0.01113095     -0.03217950
    2
 MD step:        3050 time   7.3775971958402504     
 H     -0.01264628     -0.33518856     -0.29816122     -0.01252226     -0.02620962      0.03826424
 H     -0.23302313      0.05678095      0.34276191     -0.02077711     -0.01152727     -0.03221881
    2
 MD step:        3100 time   7.4985414121655003     
 H     -0.01417144     -0.33833949     -0.29351294     -0.01271193     -0.02587227      0.03861958
 H     -0.23552533      0.05536782      0.33884478     -0.02058745     -0.01186462     -0.03257416
    2
 MD step:        3150 time   7.6194856284907502     
 H     -0.01572409     -0.34144153     -0.28882660     -0.01297748     -0.02539996      0.03903084
 H     -0.23800005      0.05390580      0.33488960     -0.02032190     -0.01233693     -0.03298542
    2
 MD step:        3200 time   7.7404298448160000     
 H     -0.01731158     -0.34448160     -0.28405649     -0.01326431     -0.02488980      0.03979448
 H     -0.24043993      0.05238182      0.33085065     -0.02003507     -0.01284709     -0.03374905
    2
 MD step:        3250 time   7.8613740611412499     
 H     -0.01892640     -0.34747306     -0.27923542     -0.01340756     -0.02463501      0.03984990
 H     -0.24285247      0.05080921      0.32676074     -0.01989182     -0.01310188     -0.03380448
    2
 MD step:        3300 time   7.9823182774665007     
 H     -0.02054624     -0.35045559     -0.27442906     -0.01335587     -0.02472693      0.03940493
 H     -0.24526000      0.04922768      0.32268554     -0.01994350     -0.01300996     -0.03335950
    2
 MD step:        3350 time   8.1032624937917497     
 H     -0.02215489     -0.35345803     -0.26970957     -0.01325357     -0.02490890      0.03883372
 H     -0.24767872      0.04766607      0.31869720     -0.02004581     -0.01282799     -0.03278830
    2
 MD step:        3400 time   8.2242067101170004     
 H     -0.02375531     -0.35647510     -0.26503230     -0.01321974     -0.02496908      0.03852760
 H     -0.25010566      0.04611907      0.31475109     -0.02007964     -0.01276782     -0.03248218
    2
 MD step:        3450 time   8.3451509264422494     
 H     -0.02535102     -0.35950056     -0.26038602     -0.01314327     -0.02510508      0.03827744
 H     -0.25253732      0.04458047      0.31083597     -0.02015611     -0.01263181     -0.03223202
    2
 MD step:        3500 time   8.4660951427675002     
 H     -0.02692517     -0.36256435     -0.25580995     -0.01284977     -0.02562711      0.03715463
 H     -0.25499054      0.04308021      0.30699106     -0.02044961     -0.01210979     -0.03110921
    2
 MD step:        3550 time   8.5870393590927510     
 H     -0.02845376     -0.36570919     -0.25139192     -0.01242704     -0.02637899      0.03592596
 H     -0.25748932      0.04166099      0.30330419     -0.02087234     -0.01135791     -0.02988054
    2
 MD step:        3600 time   8.7079835754179999     
 H     -0.02993340     -0.36894109     -0.24712558     -0.01205882     -0.02703392      0.03478107
 H     -0.26003705      0.04032883      0.29976900     -0.02124056     -0.01070298     -0.02873565
    2
 MD step:        3650 time   8.8289277917432507     
 H     -0.03137027     -0.37224906     -0.24296910     -0.01168197     -0.02770419      0.03390404
 H     -0.26262754      0.03907274      0.29634369     -0.02161741     -0.01003270     -0.02785862
    2
 MD step:        3700 time   8.9498720080684997     
 H     -0.03274951     -0.37565953     -0.23896986     -0.01109149     -0.02875443      0.03215794
 H     -0.26527567      0.03791915      0.29307561     -0.02220788     -0.00898246     -0.02611252
    2
 MD step:        3750 time   9.0708162243937505     
 H     -0.03404861     -0.37921254     -0.23518648     -0.01039522     -0.02999286      0.03029962
 H     -0.26800394      0.03690810      0.29002338     -0.02290416     -0.00774403     -0.02425420
    2
 MD step:        3800 time   9.1917604407189994     
 H     -0.03526823     -0.38290690     -0.23161614     -0.00979090     -0.03106772      0.02886709
 H     -0.27081168      0.03603841      0.28718421     -0.02350848     -0.00666917     -0.02282167
    2
 MD step:        3850 time   9.3127046570442502     
 H     -0.03641543     -0.38673011     -0.22820634     -0.00914935     -0.03220879      0.02738292
 H     -0.27369185      0.03529755      0.28450556     -0.02415002     -0.00552811     -0.02133750
    2
 MD step:        3900 time   9.4336488733695010     
 H     -0.03747307     -0.39071258     -0.22502161     -0.00831833     -0.03368687      0.02534973
 H     -0.27666158      0.03471596      0.28205199     -0.02498105     -0.00405002     -0.01930431
    2
 MD step:        3950 time   9.5545930896947500     
 H     -0.03842800     -0.39487775     -0.22208655     -0.00749373     -0.03515353      0.02325475
 H     -0.27973402      0.03431707      0.27984809     -0.02580564     -0.00258337     -0.01720933
    2
 MD step:        4000 time   9.6755373060200007     
 H     -0.03929216     -0.39920434     -0.21935939     -0.00680129     -0.03638513      0.02185662
 H     -0.28289722      0.03407961      0.27785209     -0.02649808     -0.00135177     -0.01581120
    2
 MD step:        4050 time   9.7964815223452497     
 H     -0.04006933     -0.40368568     -0.21681738     -0.00601778     -0.03777871      0.02000517
 H     -0.28614741      0.03399689      0.27604124     -0.02728160      0.00004182     -0.01395974
    2
 MD step:        4100 time   9.9174257386705005     
 H     -0.04074373     -0.40834982     -0.21451355     -0.00513902     -0.03934170      0.01806168
 H     -0.28950039      0.03409696      0.27446856     -0.02816036      0.00160480     -0.01201626
    2
 MD step:        4150 time   10.038369954995749     
 H     -0.04131823     -0.41319162     -0.21244161     -0.00440104     -0.04065429      0.01641667
 H     -0.29295325      0.03437471      0.27312778     -0.02889834      0.00291740     -0.01037125
    2
 MD step:        4200 time   10.159314171321000     
 H     -0.04181263     -0.41817590     -0.21052758     -0.00377389     -0.04176977      0.01522430
 H     -0.29648622      0.03479493      0.27194491     -0.02952549      0.00403287     -0.00917888
    2
 MD step:        4250 time   10.280258387646251     
 H     -0.04222597     -0.42330435     -0.20878919     -0.00304779     -0.04306124      0.01355125
 H     -0.30010025      0.03535932      0.27093768     -0.03025159      0.00532434     -0.00750583
    2
 MD step:        4300 time   10.401202603971500     
 H     -0.04255037     -0.42859099     -0.20724563     -0.00234169     -0.04431712      0.01191600
 H     -0.30380321      0.03608190      0.27012529     -0.03095768      0.00658022     -0.00587058
    2
 MD step:        4350 time   10.522146820296751     
 H     -0.04280185     -0.43400734     -0.20586706     -0.00185243     -0.04518734      0.01099367
 H     -0.30757910      0.03693419      0.26947787     -0.03144695      0.00745044     -0.00494825
    2
 MD step:        4400 time   10.643091036622000     
 H     -0.04300228     -0.43951447     -0.20458127     -0.00145394     -0.04589611      0.01018416
 H     -0.31140604      0.03787726      0.26892324     -0.03184544      0.00815922     -0.00413874
    2
 MD step:        4450 time   10.764035252947250     
 H     -0.04315068     -0.44511416     -0.20341297     -0.00099034     -0.04672069      0.00919487
 H     -0.31528501      0.03891289      0.26848609     -0.03230904      0.00898379     -0.00314945
    2
 MD step:        4500 time   10.884979469272501     
 H     -0.04324455     -0.45081083     -0.20237475     -0.00058968     -0.04743330      0.00806126
 H     -0.31921850      0.04004551      0.26817904     -0.03270969      0.00969641     -0.00201584
    2
 MD step:        4550 time   11.005923685597750     
 H     -0.04330377     -0.45656913     -0.20142033     -0.00042467     -0.04772679      0.00775002
 H     -0.32318665      0.04123975      0.26795578     -0.03287470      0.00998990     -0.00170460
    2
 MD step:        4600 time   11.126867901923001     
 H     -0.04335285     -0.46234548     -0.20049248     -0.00038740     -0.04779310      0.00756188
 H     -0.32716494      0.04245203      0.26775908     -0.03291198      0.01005620     -0.00151646
    2
 MD step:        4650 time   11.247812118248250     
 H     -0.04339608     -0.46813222     -0.19958726     -0.00031215     -0.04792694      0.00732082
 H     -0.33114908      0.04367472      0.26758502     -0.03298723      0.01019004     -0.00127540
    2
 MD step:        4700 time   11.368756334573501     
 H     -0.04342905     -0.47393721     -0.19874229     -0.00024521     -0.04804599      0.00681159
 H     -0.33514347      0.04491565      0.26747122     -0.03305416      0.01030909     -0.00076616
    2
 MD step:        4750 time   11.489700550898750     
 H     -0.04346363     -0.47973933     -0.19792206     -0.00036308     -0.04783635      0.00674178
 H     -0.33913626      0.04615371      0.26738214     -0.03293630      0.01009945     -0.00069636
    2
 MD step:        4800 time   11.610644767224001     
 H     -0.04352569     -0.48549259     -0.19708194     -0.00068668     -0.04726078      0.00721618
 H     -0.34310157      0.04734291      0.26727318     -0.03261270      0.00952388     -0.00117076
    2
 MD step:        4850 time   11.731588983549251     
 H     -0.04363215     -0.49116688     -0.19617509     -0.00106635     -0.04658549      0.00768552
 H     -0.34702248      0.04845314      0.26709748     -0.03223303      0.00884859     -0.00164010
    2
 MD step:        4900 time   11.852533199874500     
 H     -0.04378174     -0.49676445     -0.19523102     -0.00139409     -0.04600256      0.00799624
 H     -0.35090025      0.04948665      0.26688458     -0.03190529      0.00826567     -0.00195082
    2
 MD step:        4950 time   11.973477416199751     
 H     -0.04396985     -0.50229349     -0.19426282     -0.00173281     -0.04540009      0.00799126
 H     -0.35473951      0.05045163      0.26664753     -0.03156657      0.00766320     -0.00194584
    2
 MD step:        5000 time   12.094421632525000     
 H     -0.04420615     -0.50773683     -0.19326237     -0.00221390     -0.04454441      0.00857298
 H     -0.35853057      0.05133091      0.26637824     -0.03108547      0.00680751     -0.00252756
    2
 MD step:        5050 time   12.215365848850251     
 H     -0.04451259     -0.51305543     -0.19218510     -0.00288249     -0.04335525      0.00936098
 H     -0.36225150      0.05208545      0.26603213     -0.03041689      0.00561835     -0.00331556
    2
 MD step:        5100 time   12.336310065175500     
 H     -0.04490713     -0.51821733     -0.19098693     -0.00364631     -0.04199668      0.01044702
 H     -0.36588434      0.05268329      0.26556512     -0.02965307      0.00425979     -0.00440160
    2
 MD step:        5150 time   12.457254281500751     
 H     -0.04539272     -0.52321727     -0.18967754     -0.00437624     -0.04069840      0.01119569
 H     -0.36942611      0.05311917      0.26498689     -0.02892313      0.00296151     -0.00515027
    2
 MD step:        5200 time   12.578198497826001     
 H     -0.04596183     -0.52806867     -0.18827416     -0.00503023     -0.03953520      0.01186112
 H     -0.37288437      0.05340651      0.26431467     -0.02826915      0.00179831     -0.00581570
    2
 MD step:        5250 time   12.699142714151250     
 H     -0.04661047     -0.53277861     -0.18681381     -0.00569685     -0.03834953      0.01244676
 H     -0.37626310      0.05355239      0.26358548     -0.02760253      0.00061264     -0.00640134
    2
 MD step:        5300 time   12.820086930476501     
 H     -0.04734617     -0.53733369     -0.18526411     -0.00649164     -0.03693590      0.01315200
 H     -0.37955476      0.05354341      0.26276694     -0.02680774     -0.00080100     -0.00710658
    2
 MD step:        5350 time   12.941031146801750     
 H     -0.04818656     -0.54170258     -0.18360295     -0.00742924     -0.03526825      0.01436931
 H     -0.38274174      0.05334825      0.26183693     -0.02587014     -0.00246865     -0.00832389
    2
 MD step:        5400 time   13.061975363127001     
 H     -0.04914624     -0.54585929     -0.18179140     -0.00844411     -0.03346317      0.01557273
 H     -0.38580942      0.05294090      0.26075655     -0.02485527     -0.00427373     -0.00952731
    2
 MD step:        5450 time   13.182919579452250     
 H     -0.05022772     -0.54979938     -0.17983504     -0.00942551     -0.03171761      0.01680051
 H     -0.38875531      0.05231692      0.25953135     -0.02387387     -0.00601929     -0.01075509
    2
 MD step:        5500 time   13.303863795777501     
 H     -0.05142178     -0.55353922     -0.17775535     -0.01031326     -0.03013863      0.01752050
 H     -0.39158862      0.05149271      0.25818281     -0.02298612     -0.00759827     -0.01147508
    2
 MD step:        5550 time   13.424808012102751     
 H     -0.05271826     -0.55709688     -0.17558143     -0.01112572     -0.02869356      0.01835666
 H     -0.39431950      0.05048631      0.25674005     -0.02217366     -0.00904334     -0.01231124
    2
 MD step:        5600 time   13.545752228428000     
 H     -0.05411533     -0.56047565     -0.17333032     -0.01197792     -0.02717780      0.01901769
 H     -0.39694981      0.04930102      0.25522009     -0.02132145     -0.01055909     -0.01297227
    2
 MD step:        5650 time   13.666696444753251     
 H     -0.05562105     -0.56366115     -0.17096718     -0.01294066     -0.02546545      0.01999913
 H     -0.39947145      0.04792246      0.25358811     -0.02035872     -0.01227144     -0.01395371
    2
 MD step:        5700 time   13.787640661078500     
 H     -0.05724911     -0.56662908     -0.16847794     -0.01399308     -0.02359358      0.02122572
 H     -0.40187076      0.04632633      0.25183003     -0.01930630     -0.01414331     -0.01518030
    2
 MD step:        5750 time   13.908584877403751     
 H     -0.05900600     -0.56936784     -0.16583458     -0.01505104     -0.02171186      0.02243204
 H     -0.40414124      0.04450104      0.24991784     -0.01824834     -0.01602504     -0.01638662
    2
 MD step:        5800 time   14.029529093729000     
 H     -0.06088602     -0.57188760     -0.16306359     -0.01601759     -0.01999271      0.02343545