    2
 MD step:           0 time   0.0000000000000000     
 H      0.00000000      0.00000000     -0.37000000      0.01663801     -0.00014048      0.00745788
 H      0.00000000      0.00000000      0.37000000     -0.00068783      0.00479843      0.00008700
    2
 MD step:          50 time  0.12094421632525000     
 H      0.00201228     -0.00001699     -0.36910806      0.01663831     -0.00014057      0.00722990
 H     -0.00008320      0.00058035      0.37002057     -0.00068812      0.00479851      0.00031498
    2
 MD step:         100 time  0.24188843265050000     
 H      0.00402467     -0.00003402     -0.36826382      0.01664003     -0.00014106      0.00673884
 H     -0.00016651      0.00116072      0.37008884     -0.00068984      0.00479900      0.00080604
    2
 MD step:         150 time  0.36283264897575002     
 H      0.00603738     -0.00005113     -0.36748731      0.01664340     -0.00014202      0.00608345
 H     -0.00025013      0.00174119      0.37022483     -0.00069322      0.00479997      0.00146143
    2
 MD step:         200 time  0.48377686530100000     
 H      0.00805051     -0.00006837     -0.36677518      0.01664662     -0.00014294      0.00572759
 H     -0.00033418      0.00232177      0.37042522     -0.00069644      0.00480088      0.00181729
    2
 MD step:         250 time  0.60472108162625005     
 H      0.01006401     -0.00008571     -0.36610219      0.01664999     -0.00014390      0.00538258
 H     -0.00041859      0.00290247      0.37066474     -0.00069981      0.00480184      0.00216230
    2
 MD step:         300 time  0.72566529795150003     
 H      0.01207808     -0.00010321     -0.36547659      0.01665665     -0.00014580      0.00492029
 H     -0.00050359      0.00348332      0.37095165     -0.00070647      0.00480374      0.00262459
    2
 MD step:         350 time  0.84660951427675002     
 H      0.01409321     -0.00012102     -0.36492841      0.01666700     -0.00014875      0.00417722
 H     -0.00058964      0.00406448      0.37131598     -0.00071682      0.00480669      0.00336766
    2
 MD step:         400 time  0.96755373060200001     
 H      0.01610958     -0.00013918     -0.36445407      0.01667630     -0.00015140      0.00366421
 H     -0.00067692      0.00464599      0.37175415     -0.00072611      0.00480934      0.00388066
    2
 MD step:         450 time   1.0884979469272500     
 H      0.01812690     -0.00015761     -0.36403309      0.01668322     -0.00015337      0.00332683
 H     -0.00076516      0.00522777      0.37224568     -0.00073303      0.00481132      0.00421805
    2
 MD step:         500 time   1.2094421632525001     
 H      0.02014518     -0.00017631     -0.36365225      0.01669323     -0.00015622      0.00289142
 H     -0.00085435      0.00580983      0.37277735     -0.00074304      0.00481417      0.00465346
    2
 MD step:         550 time   1.3303863795777500     
 H      0.02216503     -0.00019546     -0.36334270      0.01670886     -0.00016068      0.00226321
 H     -0.00094513      0.00639233      0.37338031     -0.00075867      0.00481862      0.00528167
    2
 MD step:         600 time   1.4513305959030001     
 H      0.02418682     -0.00021516     -0.36310730      0.01672372     -0.00016491      0.00164690
 H     -0.00103783      0.00697538      0.37405741     -0.00077354      0.00482286      0.00589798
    2
 MD step:         650 time   1.5722748122282502     
 H      0.02621002     -0.00023527     -0.36292547      0.01673241     -0.00016739      0.00138831
 H     -0.00113195      0.00755884      0.37478810     -0.00078223      0.00482534      0.00615657
    2
 MD step:         700 time   1.6932190285535000     
 H      0.02823419     -0.00025565     -0.36277463      0.01674126     -0.00016991      0.00106082
 H     -0.00122704      0.00814258      0.37554977     -0.00079108      0.00482786      0.00648406
    2
 MD step:         750 time   1.8141632448787501     
 H      0.03025981     -0.00027645     -0.36267039      0.01675672     -0.00017432      0.00062947
 H     -0.00132357      0.00872672      0.37635804     -0.00080653      0.00483227      0.00691541
    2
 MD step:         800 time   1.9351074612040000     
 H      0.03228749     -0.00029783     -0.36263182      0.01677340     -0.00017908      0.00007588
 H     -0.00142217      0.00931146      0.37723197     -0.00082322      0.00483702      0.00746900
    2
 MD step:         850 time   2.0560516775292501     
 H      0.03431669     -0.00031965     -0.36263650      0.01678091     -0.00018122     -0.00014397
 H     -0.00152228      0.00989663      0.37814917     -0.00083073      0.00483916      0.00768885
    2
 MD step:         900 time   2.1769958938545000     
 H      0.03634634     -0.00034159     -0.36266024      0.01678253     -0.00018168     -0.00023473
 H     -0.00162285      0.01048192      0.37908541     -0.00083235      0.00483963      0.00777961
    2
 MD step:         950 time   2.2979401101797499     
 H      0.03837641     -0.00036366     -0.36269685      0.01678950     -0.00018367     -0.00045436
 H     -0.00172384      0.01106734      0.38003453     -0.00083932      0.00484161      0.00799924
    2
 MD step:        1000 time   2.4188843265050002     
 H      0.04040772     -0.00038607     -0.36277454      0.01680133     -0.00018704     -0.00077590
 H     -0.00182607      0.01165311      0.38102473     -0.00085115      0.00484499      0.00832078
    2
 MD step:        1050 time   2.5398285428302501     
 H      0.04244008     -0.00040879     -0.36288321      0.01680479     -0.00018802     -0.00098944
 H     -0.00192934      0.01223918      0.38204591     -0.00085461      0.00484597      0.00853432
    2
 MD step:        1100 time   2.6607727591554999     
 H      0.04447202     -0.00043139     -0.36299556      0.01679504     -0.00018524     -0.00084228
 H     -0.00203220      0.01282513      0.38307077     -0.00084485      0.00484319      0.00838716
    2
 MD step:        1150 time   2.7817169754807503     
 H      0.04650257     -0.00045359     -0.36309131      0.01678461     -0.00018227     -0.00078789
 H     -0.00213367      0.01341068      0.38407903     -0.00083442      0.00484022      0.00833277
    2
 MD step:        1200 time   2.9026611918060001     
 H      0.04853234     -0.00047557     -0.36318624      0.01678215     -0.00018157     -0.00081219
 H     -0.00223436      0.01399601      0.38508647     -0.00083197      0.00483952      0.00835706
    2
 MD step:        1250 time   3.0236054081312500     
 H      0.05056189     -0.00049748     -0.36329594      0.01677799     -0.00018038     -0.00093210
 H     -0.00233482      0.01458128      0.38610868     -0.00082780      0.00483833      0.00847698
    2
 MD step:        1300 time   3.1445496244565003     
 H      0.05259003     -0.00051900     -0.36339614      0.01675782     -0.00017463     -0.00071785
 H     -0.00243388      0.01516614      0.38712139     -0.00080763      0.00483258      0.00826273
    2
 MD step:        1350 time   3.2654938407817502     
 H      0.05461490     -0.00053958     -0.36346217      0.01672600     -0.00016556     -0.00035102
 H     -0.00252967      0.01575008      0.38809993     -0.00077581      0.00482351      0.00789590
    2
 MD step:        1400 time   3.3864380571070001     
 H      0.05663605     -0.00055910     -0.36348362      0.01669895     -0.00015785     -0.00008249
 H     -0.00262174      0.01633295      0.38903389     -0.00074877      0.00481580      0.00762737
    2
 MD step:        1450 time   3.5073822734322500     
 H      0.05865448     -0.00057785     -0.36348820      0.01667960     -0.00015234      0.00004886
 H     -0.00271109      0.01691505      0.38995098     -0.00072942      0.00481029      0.00749602
    2
 MD step:        1500 time   3.6283264897575003     
 H      0.06067029     -0.00059585     -0.36347394      0.01665243     -0.00014459      0.00019994
 H     -0.00279782      0.01749640      0.39084923     -0.00070225      0.00480254      0.00734494
    2
 MD step:        1550 time   3.7492707060827501     
 H      0.06268168     -0.00061259     -0.36342037      0.01660591     -0.00013133      0.00072156
 H     -0.00288012      0.01807649      0.39170816     -0.00065573      0.00478928      0.00682332
    2
 MD step:        1600 time   3.8702149224080000     
 H      0.06468673     -0.00062752     -0.36330014      0.01655120     -0.00011573      0.00124580
 H     -0.00295609      0.01865477      0.39250044     -0.00060101      0.00477368      0.00629908
    2
 MD step:        1650 time   3.9911591387332503     
 H      0.06668558     -0.00064068     -0.36311957      0.01650554     -0.00010272      0.00170455
 H     -0.00302585      0.01923129      0.39323239     -0.00055535      0.00476067      0.00584033
    2
 MD step:        1700 time   4.1121033550585002     
 H      0.06867954     -0.00065245     -0.36290272      0.01646779     -0.00009196      0.00191216
 H     -0.00309073      0.01980641      0.39392804     -0.00051761      0.00474991      0.00563272
    2
 MD step:        1750 time   4.2330475713837501     
 H      0.07066847     -0.00066279     -0.36264581      0.01641866     -0.00007795      0.00232750
 H     -0.00315058      0.02038010      0.39458364     -0.00046848      0.00473590      0.00521738
    2
 MD step:        1800 time   4.3539917877090000     
 H      0.07265020     -0.00067108     -0.36232955      0.01634951     -0.00005824      0.00296338
 H     -0.00320323      0.02095174      0.39517990     -0.00039932      0.00471619      0.00458150
    2
 MD step:        1850 time   4.4749360040342498     
 H      0.07462303     -0.00067682     -0.36192777      0.01627558     -0.00003717      0.00363364
 H     -0.00324697      0.02152084      0.39569062     -0.00032540      0.00469511      0.00391124
    2
 MD step:        1900 time   4.5958802203594997     
 H      0.07658766     -0.00068023     -0.36145964      0.01621541     -0.00002001      0.00411884
 H     -0.00328252      0.02208760      0.39613501     -0.00026522      0.00467796      0.00342604
    2
 MD step:        1950 time   4.7168244366847505     
 H      0.07854578     -0.00068179     -0.36094218      0.01616457     -0.00000552      0.00440111
 H     -0.00331156      0.02265250      0.39653005     -0.00021439      0.00466347      0.00314377
    2
 MD step:        2000 time   4.8377686530100004     
 H      0.08049721     -0.00068143     -0.36038066      0.01610123      0.00001253      0.00492835
 H     -0.00333391      0.02321550      0.39688104     -0.00015104      0.00464541      0.00261653
    2
 MD step:        2050 time   4.9587128693352502     
 H      0.08243970     -0.00067853     -0.35974841      0.01601844      0.00003613      0.00556264
 H     -0.00334732      0.02377595      0.39716130     -0.00006825      0.00462181      0.00198224
    2
 MD step:        2100 time   5.0796570856605001     
 H      0.08437186     -0.00067269     -0.35903120      0.01593482      0.00005997      0.00627448
 H     -0.00335039      0.02433346      0.39735660      0.00001537      0.00459798      0.00127040
    2
 MD step:        2150 time   5.2006013019857500     
 H      0.08629502     -0.00066427     -0.35824815      0.01587050      0.00007830      0.00665439
 H     -0.00334447      0.02488840      0.39748606      0.00007968      0.00457964      0.00089049
    2
 MD step:        2200 time   5.3215455183109999     
 H      0.08821131     -0.00065391     -0.35742030      0.01581764      0.00009337      0.00698739
 H     -0.00333168      0.02544138      0.39757072      0.00013254      0.00456457      0.00055749
    2
 MD step:        2250 time   5.4424897346362506     
 H      0.09012064     -0.00064155     -0.35655442      0.01575210      0.00011206      0.00741910
 H     -0.00331192      0.02599238      0.39761735      0.00019808      0.00454589      0.00012578
    2
 MD step:        2300 time   5.5634339509615005     
 H      0.09202078     -0.00062658     -0.35562041      0.01566821      0.00013597      0.00801949
 H     -0.00328298      0.02654076      0.39759585      0.00028197      0.00452198     -0.00047461
    2
 MD step:        2350 time   5.6843781672867504     
 H      0.09391085     -0.00060873     -0.35461649      0.01558991      0.00015829      0.00857963
 H     -0.00324396      0.02708626      0.39750444      0.00036027      0.00449966     -0.00103475
    2
 MD step:        2400 time   5.8053223836120003     
 H      0.09579295     -0.00058862     -0.35355886      0.01553730      0.00017329      0.00882461
 H     -0.00319698      0.02762950      0.39735932      0.00041288      0.00448466     -0.00127973
    2
 MD step:        2450 time   5.9262665999372501     
 H      0.09766968     -0.00056697     -0.35247903      0.01549678      0.00018484      0.00905439
 H     -0.00314464      0.02817121      0.39719200      0.00045341      0.00447311     -0.00150951
    2
 MD step:        2500 time   6.0472108162625000     
 H      0.09954078     -0.00054372     -0.35137143      0.01544133      0.00020065      0.00931579
 H     -0.00308665      0.02871131      0.39699691      0.00050886      0.00445730     -0.00177091
    2
 MD step:        2550 time   6.1681550325877499     
 H      0.10140410     -0.00051825     -0.35021447      0.01537147      0.00022056      0.00980659
 H     -0.00302089      0.02924919      0.39675245      0.00057872      0.00443739     -0.00226171
    2
 MD step:        2600 time   6.2890992489130007     
 H      0.10325965     -0.00049056     -0.34901021      0.01531778      0.00023586      0.01006883
 H     -0.00294736      0.02978486      0.39646071      0.00063241      0.00442208     -0.00252395
    2
 MD step:        2650 time   6.4100434652382505     
 H      0.10511060     -0.00046157     -0.34778341      0.01529469      0.00024244      0.01014032
 H     -0.00286922      0.03031921      0.39614641      0.00065549      0.00441550     -0.00259544
    2
 MD step:        2700 time   6.5309876815635004     
 H      0.10695952     -0.00043199     -0.34656278      0.01527861      0.00024703      0.01011821
 H     -0.00278906      0.03085299      0.39583829      0.00067157      0.00441092     -0.00257333
    2
 MD step:        2750 time   6.6519318978887503     
 H      0.10880545     -0.00040157     -0.34533069      0.01524403      0.00025689      0.01025654
 H     -0.00270591      0.03138591      0.39551871      0.00070615      0.00440106     -0.00271166
    2
 MD step:        2800 time   6.7728761142140002     
 H      0.11064662     -0.00036978     -0.34407655      0.01520484      0.00026806      0.01048328
 H     -0.00261800      0.03191748      0.39517708      0.00074534      0.00438989     -0.00293840
    2
 MD step:        2850 time   6.8938203305392500     
 H      0.11248458     -0.00033708     -0.34280672      0.01519529      0.00027078      0.01042038
 H     -0.00252688      0.03244813      0.39481977      0.00075489      0.00438717     -0.00287550
    2
 MD step:        2900 time   7.0147645468644999     
 H      0.11432334     -0.00030461     -0.34155851      0.01521386      0.00026549      0.01022646
 H     -0.00243655      0.03297901      0.39448407      0.00073632      0.00439246     -0.00268158
    2
 MD step:        2950 time   7.1357087631897507     
 H      0.11616434     -0.00027278     -0.34033933      0.01522689      0.00026177      0.00998425
 H     -0.00234847      0.03351053      0.39417740      0.00072329      0.00439617     -0.00243937
    2
 MD step:        3000 time   7.2566529795150005     
 H      0.11800562     -0.00024103     -0.33913009      0.01522062      0.00026356      0.01000708
 H     -0.00226067      0.03404213      0.39388067      0.00072956      0.00439439     -0.00246220
    2
 MD step:        3050 time   7.3775971958402504     
 H      0.11984662     -0.00020920     -0.33792658      0.01522882      0.00026122      0.00985646
 H     -0.00217259      0.03457365      0.39358966      0.00072137      0.00439672     -0.00231158
    2
 MD step:        3100 time   7.4985414121655003     
 H      0.12169085     -0.00017829     -0.33675100      0.01527434      0.00024825      0.00950300
 H     -0.00208773      0.03510609      0.39332659      0.00067585      0.00440970     -0.00195812
    2
 MD step:        3150 time   7.6194856284907502     
 H      0.12354177     -0.00014928     -0.33563418      0.01533162      0.00023192      0.00903897
 H     -0.00200957      0.03564044      0.39312228      0.00061857      0.00442603     -0.00149409
    2
 MD step:        3200 time   7.7404298448160000     
 H      0.12539836     -0.00012189     -0.33455880      0.01536660      0.00022195      0.00875005
 H     -0.00193708      0.03617641      0.39295941      0.00058359      0.00443600     -0.00120517
    2
 MD step:        3250 time   7.8613740611412499     
 H      0.12725850     -0.00009552     -0.33351259      0.01539667      0.00021337      0.00854961
 H     -0.00186814      0.03671338      0.39282572      0.00055351      0.00444457     -0.00100473
    2
 MD step:        3300 time   7.9823182774665007     
 H      0.12912413     -0.00007070     -0.33250273      0.01546150      0.00019489      0.00805769
 H     -0.00180468      0.03725192      0.39272836      0.00048868      0.00446305     -0.00051281
    2
 MD step:        3350 time   8.1032624937917497     
 H      0.13099950     -0.00004867     -0.33156347      0.01555105      0.00016937      0.00749156
 H     -0.00175096      0.03779324      0.39270161      0.00039914      0.00448858      0.00005332
    2
 MD step:        3400 time   8.2242067101170004     
 H      0.13288496     -0.00002951     -0.33069299      0.01562267      0.00014895      0.00696566
 H     -0.00170734      0.03833743      0.39274364      0.00032752      0.00450899      0.00057922
    2
 MD step:        3450 time   8.3451509264422494     
 H      0.13477745     -0.00001236     -0.32986682      0.01567254      0.00013473      0.00669095
 H     -0.00167076      0.03888363      0.39282998      0.00027764      0.00452321      0.00085393
    2
 MD step:        3500 time   8.4660951427675002     
 H      0.13667698      0.00000279     -0.32908569      0.01574545      0.00011395      0.00618852
 H     -0.00164120      0.03943183      0.39296136      0.00020474      0.00454399      0.00135636
    2
 MD step:        3550 time   8.5870393590927510     
 H      0.13858751      0.00001480     -0.32837229      0.01585068      0.00008395      0.00554686
 H     -0.00162265      0.03998317      0.39316046      0.00009950      0.00457399      0.00199802
    2
 MD step:        3600 time   8.7079835754179999     
 H      0.14051063      0.00002323     -0.32774235      0.01594464      0.00005717      0.00496215
 H     -0.00161668      0.04053810      0.39344304      0.00000554      0.00460078      0.00258273
    2
 MD step:        3650 time   8.8289277917432507     
 H      0.14244292      0.00002903     -0.32716496      0.01600526      0.00003989      0.00459383
 H     -0.00161989      0.04109564      0.39377815     -0.00005507      0.00461806      0.00295105
    2
 MD step:        3700 time   8.9498720080684997     
 H      0.14438235      0.00003281     -0.32663170      0.01607051      0.00002129      0.00422364
 H     -0.00163024      0.04165522      0.39415741     -0.00012033      0.00463666      0.00332124
    2
 MD step:        3750 time   9.0708162243937505     
 H      0.14633178      0.00003373     -0.32615582      0.01617033     -0.00000717      0.00357555
 H     -0.00165058      0.04221765      0.39459404     -0.00022015      0.00466511      0.00396933
    2
 MD step:        3800 time   9.1917604407189994     
 H      0.14829372      0.00003109     -0.32575824      0.01626792     -0.00003498      0.00303909
 H     -0.00168345      0.04278365      0.39510896     -0.00031774      0.00469293      0.00450579
    2
 MD step:        3850 time   9.3127046570442502     
 H      0.15026519      0.00002573     -0.32541767      0.01632607     -0.00005156      0.00265535
 H     -0.00172583      0.04335236      0.39568091     -0.00037589      0.00470951      0.00488953
    2
 MD step:        3900 time   9.4336488733695010     
 H      0.15224213      0.00001881     -0.32510819      0.01636724     -0.00006330      0.00245203
 H     -0.00177369      0.04392263      0.39628393     -0.00041706      0.00472124      0.00509284
    2
 MD step:        3950 time   9.5545930896947500     
 H      0.15422559      0.00001003     -0.32483923      0.01643697     -0.00008317      0.00197815
 H     -0.00182806      0.04449476      0.39692749     -0.00048679      0.00474112      0.00556673
    2
 MD step:        4000 time   9.6755373060200007     
 H      0.15621863     -0.00000148     -0.32462672      0.01651809     -0.00010630      0.00150052
 H     -0.00189203      0.04506962      0.39762748     -0.00056790      0.00476424      0.00604436
    2
 MD step:        4050 time   9.7964815223452497     
 H      0.15821962     -0.00001525     -0.32446783      0.01656155     -0.00011868      0.00122164
 H     -0.00196393      0.04564674      0.39838110     -0.00061136      0.00477663      0.00632324
    2
 MD step:        4100 time   9.9174257386705005     
 H      0.16022314     -0.00002975     -0.32432459      0.01656716     -0.00012028      0.00114365
 H     -0.00203836      0.04622459      0.39915038     -0.00061697      0.00477823      0.00640123
    2
 MD step:        4150 time   10.038369954995749     
 H      0.16222759     -0.00004451     -0.32419506      0.01658397     -0.00012508      0.00100629
 H     -0.00211373      0.04680270      0.39993336     -0.00063379      0.00478302      0.00653859
    2
 MD step:        4200 time   10.159314171321000     
 H      0.16423585     -0.00006035     -0.32409223      0.01662626     -0.00013713      0.00064568
 H     -0.00219291      0.04738190      0.40074303     -0.00067607      0.00479508      0.00689920
    2
 MD step:        4250 time   10.280258387646251     
 H      0.16624847     -0.00007744     -0.32402577      0.01664650     -0.00014290      0.00050081
 H     -0.00227645      0.04796234      0.40158908     -0.00069632      0.00480085      0.00704407
    2
 MD step:        4300 time   10.401202603971500     
 H      0.16826038     -0.00009433     -0.32396668      0.01661581     -0.00013415      0.00053242
 H     -0.00235928      0.04854258      0.40244250     -0.00066563      0.00479210      0.00701246
    2
 MD step:        4350 time   10.522146820296751     
 H      0.17026697     -0.00010971     -0.32389017      0.01656805     -0.00012054      0.00072167
 H     -0.00243679      0.04912131      0.40327851     -0.00061787      0.00477849      0.00682321
    2
 MD step:        4400 time   10.643091036622000     
 H      0.17226930     -0.00012386     -0.32380661      0.01654741     -0.00011465      0.00065052
 H     -0.00251003      0.04969881      0.40410745     -0.00059722      0.00477260      0.00689436
    2
 MD step:        4450 time   10.764035252947250     
 H      0.17427007     -0.00013757     -0.32372904      0.01653410     -0.00011086      0.00059817
 H     -0.00258172      0.05027588      0.40494239     -0.00058391      0.00476881      0.00694671
    2
 MD step:        4500 time   10.884979469272501     
 H      0.17626700     -0.00015019     -0.32365377      0.01647769     -0.00009478      0.00074193
 H     -0.00264957      0.05085185      0.40577963     -0.00052750      0.00475273      0.00680295
    2
 MD step:        4550 time   11.005923685597750     
 H      0.17825395     -0.00015996     -0.32354270      0.01637555     -0.00006566      0.00109584
 H     -0.00270744      0.05142497      0.40658107     -0.00042536      0.00472361      0.00644904
    2
 MD step:        4600 time   11.126867901923001     
 H      0.18022830     -0.00016614     -0.32339024      0.01627740     -0.00003769      0.00143368
 H     -0.00275270      0.05199450      0.40734112     -0.00032721      0.00469563      0.00611120
    2
 MD step:        4650 time   11.247812118248250     
 H      0.18219275     -0.00016950     -0.32320722      0.01621015     -0.00001851      0.00153183
 H     -0.00278807      0.05256121      0.40807061     -0.00025996      0.00467646      0.00601305
    2
 MD step:        4700 time   11.368756334573501     
 H      0.18414917     -0.00017057     -0.32301060      0.01613546      0.00000278      0.00175780
 H     -0.00281540      0.05312563      0.40878649     -0.00018527      0.00465517      0.00578708
    2
 MD step:        4750 time   11.489700550898750     
 H      0.18609368     -0.00016824     -0.32278030      0.01601088      0.00003829      0.00211578
 H     -0.00283083      0.05368666      0.40946871     -0.00006070      0.00461966      0.00542910
    2
 MD step:        4800 time   11.610644767224001     
 H      0.18802053     -0.00016089     -0.32248776      0.01585141      0.00008375      0.00271867
 H     -0.00282860      0.05424265      0.41008868      0.00009878      0.00457420      0.00482621
    2
 MD step:        4850 time   11.731588983549251     
 H      0.18992887     -0.00014825     -0.32213311      0.01571150      0.00012363      0.00312358
 H     -0.00280786      0.05479337      0.41064654      0.00023868      0.00453432      0.00442130
    2
 MD step:        4900 time   11.852533199874500     
 H      0.19182242     -0.00013140     -0.32173285      0.01560356      0.00015440      0.00343423
 H     -0.00277233      0.05533987      0.41115879      0.00034662      0.00450355      0.00411065
    2
 MD step:        4950 time   11.973477416199751     
 H      0.19370265     -0.00011075     -0.32130273      0.01548262      0.00018887      0.00376408
 H     -0.00272348      0.05588257      0.41164118      0.00046757      0.00446907      0.00378080
    2
 MD step:        5000 time   12.094421632525000     
 H      0.19556526     -0.00008508     -0.32081528      0.01531128      0.00023772      0.00430600
 H     -0.00265700      0.05642025      0.41206624      0.00063890      0.00442023      0.00323888
    2
 MD step:        5050 time   12.215365848850251     
 H      0.19740525     -0.00005296     -0.32025387      0.01511685      0.00029314      0.00499018
 H     -0.00256792      0.05695148      0.41241734      0.00083333      0.00436481      0.00255470
    2
 MD step:        5100 time   12.336310065175500     
 H      0.19922320     -0.00001455     -0.31961710      0.01495358      0.00033968      0.00546085
 H     -0.00245678      0.05747643      0.41269307      0.00099660      0.00431826      0.00208403
    2
 MD step:        5150 time   12.457254281500751     
 H      0.20102379      0.00002880     -0.31893355      0.01482564      0.00037615      0.00584891
 H     -0.00232828      0.05799643      0.41292203      0.00112454      0.00428179      0.00169597
    2
 MD step:        5200 time   12.578198497826001     
 H      0.20280857      0.00007665     -0.31820905      0.01468318      0.00041676      0.00617770
 H     -0.00218399      0.05851193      0.41311004      0.00126701      0.00424118      0.00136718
    2
 MD step:        5250 time   12.699142714151250     
 H      0.20457337      0.00013021     -0.31742334      0.01449433      0.00047060      0.00681788
 H     -0.00201970      0.05902172      0.41323684      0.00145586      0.00418735      0.00072700
    2
 MD step:        5300 time   12.820086930476501     
 H      0.20631407      0.00019063     -0.31656079      0.01429420      0.00052765      0.00743856
 H     -0.00183132      0.05952465      0.41328680      0.00165599      0.00413030      0.00010632
    2
 MD step:        5350 time   12.941031146801750     
 H      0.20803265      0.00025736     -0.31562677      0.01413551      0.00057288      0.00793240
 H     -0.00162081      0.06002127      0.41326529      0.00181467      0.00408507     -0.00038752
    2
 MD step:        5400 time   13.061975363127001     
 H      0.20973477      0.00032878     -0.31465378      0.01401563      0.00060706      0.00819993
 H     -0.00139385      0.06051320      0.41320481      0.00193456      0.00405089     -0.00065505
    2
 MD step:        5450 time   13.182919579452250     
 H      0.21142211      0.00040442     -0.31364173      0.01388117      0.00064538      0.00852113
 H     -0.00115211      0.06100092      0.41310527      0.00206901      0.00401256     -0.00097625
    2
 MD step:        5500 time   13.303863795777501     
 H      0.21309071      0.00048540     -0.31257914      0.01370634      0.00069522      0.00908733
 H     -0.00089162      0.06148330      0.41295519      0.00224385      0.00396272     -0.00154245
    2
 MD step:        5550 time   13.424808012102751     
 H      0.21473758      0.00057257     -0.31144685      0.01353356      0.00074447      0.00958852
 H     -0.00060941      0.06195948      0.41273541      0.00241662      0.00391347     -0.00204364
    2
 MD step:        5600 time   13.545752228428000     
 H      0.21636643      0.00066487     -0.31026510      0.01341317      0.00077879      0.00993760
 H     -0.00030919      0.06243052      0.41246617      0.00253701      0.00387916     -0.00239272
    2
 MD step:        5650 time   13.666696444753251     
 H      0.21798370      0.00076048     -0.30905910      0.01333277      0.00080171      0.01000319
 H      0.00000263      0.06289827      0.41217268      0.00261742      0.00385623     -0.00245831
    2
 MD step:        5700 time   13.787640661078500     
 H      0.21959064      0.00085904     -0.30783276      0.01323291      0.00083018      0.01027473
 H      0.00032477      0.06336306      0.41185885      0.00271727      0.00382777     -0.00272985
    2
 MD step:        5750 time   13.908584877403751     
 H      0.22118325      0.00096168     -0.30657053      0.01310047      0.00086793      0.01063282
 H      0.00066125      0.06382378      0.41150913      0.00284971      0.00379002     -0.00308794
    2
 MD step:        5800 time   14.029529093729000     
 H      0.22276035      0.00106873     -0.30526139      0.01298909      0.00089968      0.01096088