    2
 MD step:           0 time   0.0000000000000000     
 H      0.00000000      0.00000000     -0.37000000      0.01280552      0.00554367      0.00482299
 H      0.00000000      0.00000000      0.37000000     -0.02428313      0.00777927     -0.00211077
    2
 MD step:          50 time  0.12094421632525000     
 H      0.00154783      0.00066953     -0.36942595      0.01277790      0.00551548      0.00465302
 H     -0.00293598      0.00094180      0.36975397     -0.02425551      0.00780746     -0.00194080
    2
 MD step:         100 time  0.24188843265050000     
 H      0.00309306      0.00133628     -0.36887888      0.01278472      0.00551972      0.00436071
 H     -0.00586936      0.00188638      0.36953494     -0.02426233      0.00780322     -0.00164849
    2
 MD step:         150 time  0.36283264897575002     
 H      0.00463831      0.00200260     -0.36837195      0.01278709      0.00551734      0.00404158
 H     -0.00880276      0.00283140      0.36935603     -0.02426470      0.00780560     -0.00132936
    2
 MD step:         200 time  0.48377686530100000     
 H      0.00618761      0.00267233     -0.36790009      0.01281918      0.00554372      0.00377237
 H     -0.01174021      0.00377301      0.36921220     -0.02429679      0.00777922     -0.00106015
    2
 MD step:         250 time  0.60472108162625005     
 H      0.00773746      0.00334182     -0.36745959      0.01280126      0.00551804      0.00350315
 H     -0.01467821      0.00471485      0.36909973     -0.02427887      0.00780490     -0.00079093
    2
 MD step:         300 time  0.72566529795150003     
 H      0.00928654      0.00400932     -0.36705761      0.01281329      0.00551755      0.00311478
 H     -0.01761544      0.00565867      0.36902577     -0.02429090      0.00780539     -0.00040256
    2
 MD step:         350 time  0.84660951427675002     
 H      0.01083601      0.00467548     -0.36670538      0.01283560      0.00552422      0.00272435
 H     -0.02055306      0.00660385      0.36900157     -0.02431321      0.00779872     -0.00001213
    2
 MD step:         400 time  0.96755373060200001     
 H      0.01239125      0.00534552     -0.36639717      0.01287038      0.00554382      0.00239283
 H     -0.02349646      0.00754514      0.36902139     -0.02434799      0.00777912      0.00031939
    2
 MD step:         450 time   1.0884979469272500     
 H      0.01394795      0.00601515     -0.36612559      0.01286701      0.00552396      0.00209483
 H     -0.02644130      0.00848685      0.36907783     -0.02434461      0.00779898      0.00061739
    2
 MD step:         500 time   1.2094421632525001     
 H      0.01550551      0.00668331     -0.36589556      0.01287851      0.00551304      0.00168866
 H     -0.02938701      0.00943002      0.36917583     -0.02435612      0.00780990      0.00102356
    2
 MD step:         550 time   1.3303863795777500     
 H      0.01706426      0.00734971     -0.36571522      0.01292346      0.00553284      0.00130149
 H     -0.03233391      0.01037495      0.36932351     -0.02440107      0.00779010      0.00141073
    2
 MD step:         600 time   1.4513305959030001     
 H      0.01862980      0.00802003     -0.36557818      0.01295750      0.00554517      0.00099282
 H     -0.03528760      0.01131596      0.36951451     -0.02443511      0.00777777      0.00171939
    2
 MD step:         650 time   1.5722748122282502     
 H      0.02019762      0.00869016     -0.36547318      0.01296663      0.00553385      0.00074353
 H     -0.03824358      0.01225716      0.36973753     -0.02444423      0.00778909      0.00196869
    2
 MD step:         700 time   1.6932190285535000     
 H      0.02176689      0.00935895     -0.36540309      0.01296878      0.00551012      0.00040611
 H     -0.04120099      0.01319970      0.36999547     -0.02444639      0.00781282      0.00230611
    2
 MD step:         750 time   1.8141632448787501     
 H      0.02333781      0.01002610     -0.36537299      0.01302714      0.00554122      0.00009329
 H     -0.04416007      0.01414389      0.37029339     -0.02450475      0.00778172      0.00261893
    2
 MD step:         800 time   1.9351074612040000     
 H      0.02491516      0.01069677     -0.36537638      0.01305563      0.00554998     -0.00011651
 H     -0.04712557      0.01508455      0.37062481     -0.02453324      0.00777296      0.00282873
    2
 MD step:         850 time   2.0560516775292501     
 H      0.02649509      0.01136805     -0.36539858      0.01306835      0.00554845     -0.00024836
 H     -0.05009364      0.01602460      0.37097504     -0.02454596      0.00777449      0.00296058
    2
 MD step:         900 time   2.1769958938545000     
 H      0.02807539      0.01203782     -0.36544019      0.01305214      0.00551444     -0.00044061
 H     -0.05306209      0.01696616      0.37134468     -0.02452975      0.00780850      0.00315282
    2
 MD step:         950 time   2.2979401101797499     
 H      0.02965677      0.01270640     -0.36550435      0.01310554      0.00554987     -0.00062326
 H     -0.05603162      0.01790892      0.37173686     -0.02458315      0.00777307      0.00333548
    2
 MD step:        1000 time   2.4188843265050002     
 H      0.03124251      0.01337778     -0.36558541      0.01312332      0.00556123     -0.00068353
 H     -0.05900552      0.01884887      0.37214596     -0.02460092      0.00776171      0.00339575
    2
 MD step:        1050 time   2.5398285428302501     
 H      0.03283024      0.01405113     -0.36566658      0.01312629      0.00556872     -0.00065237
 H     -0.06198140      0.01978686      0.37255515     -0.02460389      0.00775422      0.00336459
    2
 MD step:        1100 time   2.6607727591554999     
 H      0.03441568      0.01472279     -0.36574539      0.01308505      0.00553149     -0.00064798
 H     -0.06495499      0.02072653      0.37296198     -0.02456266      0.00779145      0.00336019
    2
 MD step:        1150 time   2.7817169754807503     
 H      0.03600006      0.01539376     -0.36582447      0.01311137      0.00556153     -0.00066594
 H     -0.06792751      0.02166690      0.37336909     -0.02458898      0.00776141      0.00337816
    2
 MD step:        1200 time   2.9026611918060001     
 H      0.03758515      0.01606657     -0.36590043      0.01311383      0.00558134     -0.00055981
 H     -0.07090075      0.02260541      0.37377309     -0.02459144      0.00774160      0.00327203
    2
 MD step:        1250 time   3.0236054081312500     
 H      0.03917065      0.01674300     -0.36595644      0.01309414      0.00559582     -0.00035259
 H     -0.07387441      0.02354032      0.37415712     -0.02457175      0.00772712      0.00306481
    2
 MD step:        1300 time   3.1445496244565003     
 H      0.04075025      0.01741802     -0.36598601      0.01302554      0.00556529     -0.00013367
 H     -0.07684216      0.02447662      0.37451471     -0.02450315      0.00775765      0.00284588
    2
 MD step:        1350 time   3.2654938407817502     
 H      0.04232506      0.01809269     -0.36599193      0.01300501      0.00558084      0.00002695
 H     -0.07980511      0.02541329      0.37484867     -0.02448262      0.00774210      0.00268527
    2
 MD step:        1400 time   3.3864380571070001     
 H      0.04389572      0.01876811     -0.36597440      0.01298753      0.00561110      0.00028452
 H     -0.08276393      0.02634921      0.37515916     -0.02446514      0.00771184      0.00242770
    2
 MD step:        1450 time   3.5073822734322500     
 H      0.04546427      0.01944848     -0.36591966      0.01293767      0.00563016      0.00064481
 H     -0.08572063      0.02728017      0.37543245     -0.02441528      0.00769278      0.00206741
    2
 MD step:        1500 time   3.6283264897575003     
 H      0.04702350      0.02012865     -0.36581680      0.01284536      0.00561687      0.00105786
 H     -0.08866801      0.02821133      0.37565762     -0.02432297      0.00770608      0.00165436
    2
 MD step:        1550 time   3.7492707060827501     
 H      0.04857321      0.02080869     -0.36566793      0.01276699      0.00561392      0.00139320
 H     -0.09160587      0.02914262      0.37583677     -0.02424460      0.00770903      0.00131901
    2
 MD step:        1600 time   3.8702149224080000     
 H      0.05011332      0.02148835     -0.36547713      0.01272336      0.00565033      0.00176869
 H     -0.09453413      0.03007430      0.37597400     -0.02420097      0.00767261      0.00094353
    2
 MD step:        1650 time   3.9911591387332503     
 H      0.05164789      0.02217331     -0.36523728      0.01264295      0.00567076      0.00222987
 H     -0.09745686      0.03100067      0.37606218     -0.02412056      0.00765218      0.00048235
    2
 MD step:        1700 time   4.1121033550585002     
 H      0.05317092      0.02286013     -0.36493467      0.01253662      0.00568238      0.00277742
 H     -0.10036803      0.03192518      0.37608760     -0.02401423      0.00764056     -0.00006520
    2
 MD step:        1750 time   4.2330475713837501     
 H      0.05467999      0.02354728     -0.36456872      0.01240449      0.00566612      0.00326307
 H     -0.10326525      0.03284936      0.37604967     -0.02388209      0.00765682     -0.00055085
    2
 MD step:        1800 time   4.3539917877090000     
 H      0.05617433      0.02423330     -0.36414574      0.01232769      0.00569988      0.00372023
 H     -0.10614774      0.03377467      0.37595472     -0.02380530      0.00762307     -0.00100801
    2
 MD step:        1850 time   4.4749360040342498     
 H      0.05765891      0.02492351     -0.36366754      0.01222128      0.00571686      0.00421986
 H     -0.10902047      0.03469580      0.37580454     -0.02369888      0.00760608     -0.00150764
    2
 MD step:        1900 time   4.5958802203594997     
 H      0.05913129      0.02561779     -0.36312172      0.01211317      0.00575321      0.00481262
 H     -0.11188100      0.03561285      0.37558675     -0.02359078      0.00756973     -0.00210040
    2
 MD step:        1950 time   4.7168244366847505     
 H      0.06058699      0.02631334     -0.36250396      0.01194908      0.00573757      0.00539420
 H     -0.11472485      0.03652863      0.37529702     -0.02342669      0.00758537     -0.00268198
    2
 MD step:        2000 time   4.8377686530100004     
 H      0.06202447      0.02700790     -0.36181954      0.01183718      0.00576129      0.00589763
 H     -0.11755049      0.03744541      0.37494062     -0.02331479      0.00756165     -0.00318541
    2
 MD step:        2050 time   4.9587128693352502     
 H      0.06344783      0.02770442     -0.36107816      0.01171217      0.00577018      0.00638366
 H     -0.12036199      0.03836022      0.37452727     -0.02318977      0.00755276     -0.00367144
    2
 MD step:        2100 time   5.0796570856605001     
 H      0.06485945      0.02840633     -0.36027371      0.01161147      0.00582045      0.00692809
 H     -0.12316176      0.03926964      0.37405085     -0.02308908      0.00750249     -0.00421587
    2
 MD step:        2150 time   5.2006013019857500     
 H      0.06625430      0.02911065     -0.35939970      0.01144935      0.00582085      0.00752047
 H     -0.12594476      0.04017666      0.37350487     -0.02292696      0.00750209     -0.00480825
    2
 MD step:        2200 time   5.3215455183109999     
 H      0.06763034      0.02981520     -0.35845774      0.01131264      0.00583311      0.00802490
 H     -0.12870896      0.04108343      0.37289094     -0.02279024      0.00748984     -0.00531268
    2
 MD step:        2250 time   5.4424897346362506     
 H      0.06898920      0.03051943     -0.35746111      0.01118107      0.00583343      0.00846003
 H     -0.13145596      0.04199053      0.37222233     -0.02265868      0.00748951     -0.00574782
    2
 MD step:        2300 time   5.5634339509615005     
 H      0.07033738      0.03122896     -0.35641265      0.01109216      0.00588043      0.00888637
 H     -0.13419229      0.04289234      0.37150190     -0.02256977      0.00744251     -0.00617415
    2
 MD step:        2350 time   5.6843781672867504     
 H      0.07167135      0.03194167     -0.35530710      0.01096578      0.00590474      0.00939403
 H     -0.13691441      0.04379097      0.37072438     -0.02244339      0.00741820     -0.00668182
    2
 MD step:        2400 time   5.8053223836120003     
 H      0.07298925      0.03265635     -0.35414247      0.01082739      0.00590896      0.00983882
 H     -0.13962047      0.04468762      0.36988778     -0.02230500      0.00741398     -0.00712660
    2
 MD step:        2450 time   5.9262665999372501     
 H      0.07428985      0.03336939     -0.35293060      0.01070827      0.00590536      0.01018886
 H     -0.14230921      0.04558591      0.36900393     -0.02218588      0.00741758     -0.00747664
    2
 MD step:        2500 time   6.0472108162625000     
 H      0.07558161      0.03408646     -0.35168225      0.01063575      0.00593490      0.01046065
 H     -0.14498912      0.04648017      0.36808360     -0.02211336      0.00738804     -0.00774843
    2
 MD step:        2550 time   6.1681550325877499     
 H      0.07686390      0.03480694     -0.35039601      0.01056849      0.00598038      0.01080707
 H     -0.14765956      0.04737103      0.36712539     -0.02204610      0.00734256     -0.00809485
    2
 MD step:        2600 time   6.2890992489130007     
 H      0.07813558      0.03553069     -0.34906849      0.01045721      0.00598094      0.01113025
 H     -0.15031940      0.04825861      0.36612590     -0.02193482      0.00734200     -0.00841803
    2
 MD step:        2650 time   6.4100434652382505     
 H      0.07939360      0.03625272     -0.34770715      0.01037308      0.00597888      0.01135797
 H     -0.15296557      0.04914791      0.36509259     -0.02185069      0.00734406     -0.00864575
    2
 MD step:        2700 time   6.5309876815635004     
 H      0.08064594      0.03697700     -0.34632731      0.01032735      0.00598630      0.01146325
 H     -0.15560606      0.05003496      0.36404078     -0.02180496      0.00733664     -0.00875104
    2
 MD step:        2750 time   6.6519318978887503     
 H      0.08189533      0.03770458     -0.34493185      0.01032965      0.00604325      0.01160798
 H     -0.15824359      0.05091871      0.36297335     -0.02180726      0.00727969     -0.00889576
    2
 MD step:        2800 time   6.7728761142140002     
 H      0.08314123      0.03843579     -0.34351791      0.01027093      0.00604390      0.01176833
 H     -0.16087765      0.05179884      0.36188743     -0.02174853      0.00727904     -0.00905611
    2
 MD step:        2850 time   6.8938203305392500     
 H      0.08438027      0.03916601     -0.34208827      0.01023967      0.00604497      0.01184436
 H     -0.16350484      0.05267995      0.36078582     -0.02171728      0.00727797     -0.00913214
    2
 MD step:        2900 time   7.0147645468644999     
 H      0.08561832      0.03989667     -0.34065932      0.01023589      0.00603490      0.01178690
 H     -0.16613104      0.05356062      0.35968489     -0.02171350      0.00728804     -0.00907468
    2
 MD step:        2950 time   7.1357087631897507     
 H      0.08686120      0.04063056     -0.33923704      0.01030698      0.00609191      0.01172731
 H     -0.16876207      0.05443806      0.35859064     -0.02178459      0.00723103     -0.00901509
    2
 MD step:        3000 time   7.2566529795150005     
 H      0.08810832      0.04136762     -0.33781929      0.01031650      0.00609632      0.01171707
 H     -0.17139734      0.05531233      0.35750092     -0.02179411      0.00722662     -0.00900485
    2
 MD step:        3050 time   7.3775971958402504     
 H      0.08935689      0.04210465     -0.33640530      0.01034437      0.00609770      0.01163668
 H     -0.17403406      0.05618664      0.35641496     -0.02182198      0.00722524     -0.00892446
    2
 MD step:        3100 time   7.4985414121655003     
 H      0.09061014      0.04284053     -0.33500996      0.01039513      0.00607984      0.01143638
 H     -0.17667546      0.05706209      0.35534764     -0.02187274      0.00724310     -0.00872416
    2
 MD step:        3150 time   7.6194856284907502     
 H      0.09187623      0.04357972     -0.33364082      0.01052443      0.00612733      0.01120366
 H     -0.17932970      0.05793424      0.35430653     -0.02200204      0.00719561     -0.00849144
    2
 MD step:        3200 time   7.7404298448160000     
 H      0.09315383      0.04432137     -0.33229523      0.01060403      0.00613896      0.01104869
 H     -0.18199545      0.05880392      0.35328897     -0.02208163      0.00718398     -0.00833647
    2
 MD step:        3250 time   7.8613740611412499     
 H      0.09444072      0.04506370     -0.33097002      0.01068303      0.00613622      0.01084011
 H     -0.18467049      0.05967292      0.35229178     -0.02216064      0.00718672     -0.00812790
    2
 MD step:        3300 time   7.9823182774665007     
 H      0.09573767      0.04580376     -0.32967703      0.01079023      0.00612102      0.01053623
 H     -0.18735559      0.06054419      0.35132683     -0.02226783      0.00720192     -0.00782401
    2
 MD step:        3350 time   8.1032624937917497     
 H      0.09705410      0.04654719     -0.32842424      0.01095826      0.00615352      0.01018945
 H     -0.19006017      0.06141209      0.35040206     -0.02243587      0.00716942     -0.00747723
    2
 MD step:        3400 time   8.2242067101170004     
 H      0.09838776      0.04729270     -0.32720693      0.01109371      0.00617437      0.00994199
 H     -0.19278198      0.06227792      0.34951278     -0.02257132      0.00714858     -0.00722977
    2
 MD step:        3450 time   8.3451509264422494     
 H      0.09973608      0.04803919     -0.32602015      0.01120273      0.00616457      0.00966283
 H     -0.19551845      0.06314276      0.34865403     -0.02268034      0.00715837     -0.00695062
    2
 MD step:        3500 time   8.4660951427675002     
 H      0.10109809      0.04878292     -0.32487202      0.01135243      0.00615984      0.00931252
 H     -0.19826861      0.06401036      0.34783392     -0.02283004      0.00716310     -0.00660031
    2
 MD step:        3550 time   8.5870393590927510     
 H      0.10248308      0.04952989     -0.32377016      0.01153287      0.00617748      0.00892877
 H     -0.20104176      0.06487472      0.34706009     -0.02301047      0.00714547     -0.00621655
    2
 MD step:        3600 time   8.7079835754179999     
 H      0.10388833      0.05027916     -0.32270696      0.01169534      0.00620729      0.00865657
 H     -0.20383515      0.06573679      0.34632491     -0.02317295      0.00711565     -0.00594435
    2
 MD step:        3650 time   8.8289277917432507     
 H      0.10530968      0.05102940     -0.32167581      0.01180400      0.00619070      0.00838165
 H     -0.20664465      0.06659788      0.34562180     -0.02328161      0.00713224     -0.00566943
    2
 MD step:        3700 time   8.9498720080684997     
 H      0.10674526      0.05177712     -0.32068103      0.01196606      0.00619903      0.00805186
 H     -0.20946839      0.06746149      0.34495504     -0.02344367      0.00712391     -0.00533964
    2
 MD step:        3750 time   9.0708162243937505     
 H      0.10820290      0.05252762     -0.31972957      0.01212975      0.00620733      0.00771065
 H     -0.21231418      0.06832233      0.34433160     -0.02360736      0.00711561     -0.00499843
    2
 MD step:        3800 time   9.1917604407189994     
 H      0.10968024      0.05328130     -0.31881132      0.01228198      0.00624416      0.00748265
 H     -0.21517967      0.06917998      0.34374138     -0.02375959      0.00707878     -0.00477043
    2
 MD step:        3850 time   9.3127046570442502     
 H      0.11117069      0.05403585     -0.31791782      0.01235734      0.00622488      0.00728712
 H     -0.21805827      0.07003676      0.34317591     -0.02383495      0.00709806     -0.00457491
    2
 MD step:        3900 time   9.4336488733695010     
 H      0.11267197      0.05478873     -0.31704999      0.01249044      0.00624279      0.00704288
 H     -0.22094769      0.07089521      0.34263611     -0.02396805      0.00708015     -0.00433066
    2
 MD step:        3950 time   9.5545930896947500     
 H      0.11418961      0.05554366     -0.31621413      0.01260997      0.00625025      0.00680948
 H     -0.22385348      0.07175162      0.34212828     -0.02408758      0.00707269     -0.00409726
    2
 MD step:        4000 time   9.6755373060200007     
 H      0.11572265      0.05630310     -0.31539928      0.01271523      0.00629131      0.00668098
 H     -0.22677468      0.07260351      0.34164145     -0.02419284      0.00703163     -0.00396876
    2
 MD step:        4050 time   9.7964815223452497     
 H      0.11726185      0.05706352     -0.31459479      0.01272987      0.00627703      0.00662328
 H     -0.22970202      0.07345442      0.34116499     -0.02420748      0.00704591     -0.00391106
    2
 MD step:        4100 time   9.9174257386705005     
 H      0.11880452      0.05782348     -0.31379884      0.01279084      0.00629681      0.00651704
 H     -0.23263285      0.07430580      0.34069707     -0.02426844      0.00702613     -0.00380482
    2
 MD step:        4150 time   10.038369954995749     
 H      0.12035373      0.05858463     -0.31301727      0.01284381      0.00631107      0.00643162
 H     -0.23557020      0.07515598      0.34024352     -0.02432142      0.00701187     -0.00371940
    2
 MD step:        4200 time   10.159314171321000     
 H      0.12191080      0.05935165     -0.31224068      0.01287427      0.00635323      0.00643353
 H     -0.23851543      0.07600029      0.33979496     -0.02435188      0.00696971     -0.00372131
    2
 MD step:        4250 time   10.280258387646251     
 H      0.12346466      0.06012030     -0.31145629      0.01281314      0.00635360      0.00654211
 H     -0.24145744      0.07684297      0.33933859     -0.02429075      0.00696934     -0.00382989
    2
 MD step:        4300 time   10.401202603971500     
 H      0.12501161      0.06088975     -0.31065998      0.01276794      0.00636755      0.00660679
 H     -0.24439254      0.07768485      0.33887031     -0.02424555      0.00695539     -0.00389457
    2
 MD step:        4350 time   10.522146820296751     
 H      0.12655244      0.06165964     -0.30985701      0.01273770      0.00639192      0.00668312
 H     -0.24732152      0.07852630      0.33839538     -0.02421531      0.00693102     -0.00397090
    2
 MD step:        4400 time   10.643091036622000     
 H      0.12809127      0.06243623     -0.30904228      0.01267955      0.00643179      0.00681871
 H     -0.25024849      0.07936105      0.33790867     -0.02415716      0.00689115     -0.00410649
    2
 MD step:        4450 time   10.764035252947250     
 H      0.12961722      0.06321577     -0.30820186      0.01254392      0.00645544      0.00708507
 H     -0.25316260      0.08019284      0.33739627     -0.02402153      0.00686751     -0.00437286
    2
 MD step:        4500 time   10.884979469272501     
 H      0.13112469      0.06399734     -0.30732938      0.01237827      0.00646079      0.00732874
 H     -0.25605822      0.08102259      0.33685183     -0.02385587      0.00686215     -0.00461652
    2
 MD step:        4550 time   11.005923685597750     
 H      0.13261242      0.06477893     -0.30642879      0.01225358      0.00649276      0.00756004
 H     -0.25893409      0.08185234      0.33627926     -0.02373118      0.00683018     -0.00484782
    2
 MD step:        4600 time   11.126867901923001     
 H      0.13408681      0.06556699     -0.30550108      0.01210663      0.00652655      0.00781089
 H     -0.26179663      0.08267561      0.33567958     -0.02358424      0.00679639     -0.00509867
    2
 MD step:        4650 time   11.247812118248250     
 H      0.13554029      0.06635980     -0.30453377      0.01191308      0.00657710      0.00819153
 H     -0.26463826      0.08349413      0.33504029     -0.02339069      0.00674584     -0.00547931
    2
 MD step:        4700 time   11.368756334573501     
 H      0.13696510      0.06715589     -0.30351848      0.01164068      0.00657919      0.00859180
 H     -0.26745123      0.08430938      0.33435303     -0.02311829      0.00674375     -0.00587959
    2
 MD step:        4750 time   11.489700550898750     
 H      0.13835783      0.06795225     -0.30245620      0.01141805      0.00661255      0.00895723
 H     -0.27023211      0.08512435      0.33361878     -0.02289566      0.00671039     -0.00624501
    2
 MD step:        4800 time   11.610644767224001     
 H      0.13972538      0.06875363     -0.30135378      0.01119058      0.00663642      0.00929636
 H     -0.27298781      0.08593430      0.33284438     -0.02266819      0.00668652     -0.00658414
    2
 MD step:        4850 time   11.731588983549251     
 H      0.14106632      0.06956134     -0.30020367      0.01096288      0.00670850      0.00972727
 H     -0.27571690      0.08673792      0.33202230     -0.02244049      0.00661444     -0.00701505
    2
 MD step:        4900 time   11.852533199874500     
 H      0.14237223      0.07037353     -0.29899706      0.01062661      0.00671932      0.01022825
 H     -0.27841096      0.08753706      0.33114373     -0.02210421      0.00660362     -0.00751603
    2
 MD step:        4950 time   11.973477416199751     
 H      0.14363773      0.07118730     -0.29773065      0.01031870      0.00674898      0.01069158
 H     -0.28106461      0.08833463      0.33020533     -0.02179631      0.00657396     -0.00797936
    2
 MD step:        5000 time   12.094421632525000     
 H      0.14486728      0.07200391     -0.29641392      0.01002472      0.00676136      0.01109315
 H     -0.28368231      0.08912936      0.32921664     -0.02150233      0.00656158     -0.00838093
    2
 MD step:        5050 time   12.215365848850251     
 H      0.14606640      0.07282741     -0.29504688      0.00978187      0.00683982      0.01151399
 H     -0.28626958      0.08991719      0.32817762     -0.02125948      0.00648312     -0.00880178
    2
 MD step:        5100 time   12.336310065175500     
 H      0.14722894      0.07365621     -0.29362328      0.00944171      0.00687087      0.01203545
 H     -0.28882027      0.09069972      0.32708205     -0.02091932      0.00645207     -0.00932323
    2
 MD step:        5150 time   12.457254281500751     
 H      0.14834906      0.07448876     -0.29213623      0.00908552      0.00689622      0.01253930
 H     -0.29132854      0.09147850      0.32592303     -0.02056313      0.00642672     -0.00982708
    2
 MD step:        5200 time   12.578198497826001     
 H      0.14942632      0.07532237     -0.29059324      0.00875048      0.00690096      0.01297392
 H     -0.29379395      0.09225622      0.32470806     -0.02022809      0.00642199     -0.01026170
    2
 MD step:        5250 time   12.699142714151250     
 H      0.15047081      0.07616213     -0.28900133      0.00850266      0.00696664      0.01334621
 H     -0.29622659      0.09302780      0.32344418     -0.01998027      0.00635630     -0.01063400
    2
 MD step:        5300 time   12.820086930476501     
 H      0.15148132      0.07700721     -0.28735968      0.00821358      0.00702104      0.01380790
 H     -0.29862526      0.09379405      0.32213056     -0.01969119      0.00630190     -0.01109568
    2
 MD step:        5350 time   12.941031146801750     
 H      0.15245416      0.07785824     -0.28566112      0.00786580      0.00704434      0.01427899
 H     -0.30098624      0.09455435      0.32076002     -0.01934341      0.00627860     -0.01156677
    2
 MD step:        5400 time   13.061975363127001     
 H      0.15338399      0.07870986     -0.28390791      0.00753280      0.00705004      0.01470193
 H     -0.30330422      0.09531407      0.31933484     -0.01901040      0.00627290     -0.01198971
    2
 MD step:        5450 time   13.182919579452250     
 H      0.15428117      0.07956604     -0.28211082      0.00729153      0.00708980      0.01500643
 H     -0.30558956      0.09606922      0.31786578     -0.01876914      0.00623315     -0.01229421
    2
 MD step:        5500 time   13.303863795777501     
 H      0.15515001      0.08042679     -0.28027495      0.00708818      0.00716062      0.01535110
 H     -0.30784654      0.09681980      0.31635793     -0.01856579      0.00616232     -0.01263888
    2
 MD step:        5550 time   13.424808012102751     
 H      0.15599102      0.08129466     -0.27839670      0.00680717      0.00718362      0.01572145
 H     -0.31007571      0.09756326      0.31480771     -0.01828478      0.00613932     -0.01300923
    2
 MD step:        5600 time   13.545752228428000     
 H      0.15679669      0.08216399     -0.27647313      0.00652979      0.00719769      0.01607439
 H     -0.31226953      0.09830526      0.31321217     -0.01800740      0.00612525     -0.01336217
    2
 MD step:        5650 time   13.666696444753251     
 H      0.15757397      0.08303616     -0.27451495      0.00632008      0.00721023      0.01629611
 H     -0.31443496      0.09904443      0.31158201     -0.01779769      0.00611271     -0.01358390
    2
 MD step:        5700 time   13.787640661078500     
 H      0.15833129      0.08391192     -0.27253123      0.00621823      0.00728566      0.01649474
 H     -0.31658043      0.09978000      0.30992632     -0.01769584      0.00603728     -0.01378252
    2
 MD step:        5750 time   13.908584877403751     
 H      0.15907347      0.08479450     -0.27052380      0.00604808      0.00730935      0.01672190
 H     -0.31871075      0.10050875      0.30824692     -0.01752568      0.00601359     -0.01400968
    2
 MD step:        5800 time   14.029529093729000     
 H      0.15979421      0.08568010     -0.26848681      0.00587181      0.00733237      0.01695261