    2
 MD step:           0 time   0.0000000000000000     
 H      0.00000000      0.00000000     -0.37000000     -0.00925922      0.00085482      0.00024132
 H      0.00000000      0.00000000      0.37000000      0.00522501     -0.00065199     -0.00194120
    2
 MD step:          50 time  0.12094421632525000     
 H     -0.00112614      0.00010339     -0.37001990     -0.00947463      0.00085493     -0.00096652
 H      0.00063823     -0.00007886      0.36981431      0.00544042     -0.00065210     -0.00073336
    2
 MD step:         100 time  0.24188843265050000     
 H     -0.00229597      0.00020681     -0.37022599     -0.00968553      0.00085522     -0.00208191
 H      0.00132014     -0.00015774      0.36981481      0.00565133     -0.00065239      0.00038204
    2
 MD step:         150 time  0.36283264897575002     
 H     -0.00346433      0.00031026     -0.37050096     -0.00981241      0.00085551     -0.00250392
 H      0.00200059     -0.00023666      0.36988419      0.00577821     -0.00065267      0.00080404
    2
 MD step:         200 time  0.48377686530100000     
 H     -0.00465193      0.00041376     -0.37085405     -0.00958805      0.00085625     -0.00355761
 H      0.00270028     -0.00031564      0.37003169      0.00555385     -0.00065341      0.00185774
    2
 MD step:         250 time  0.60472108162625005     
 H     -0.00578754      0.00051736     -0.37135449     -0.00932841      0.00085678     -0.00438941
 H      0.00334798     -0.00039471      0.37032654      0.00529421     -0.00065395      0.00268954
    2
 MD step:         300 time  0.72566529795150003     
 H     -0.00691781      0.00062103     -0.37194295     -0.00943432      0.00085777     -0.00574943
 H      0.00399032     -0.00047384      0.37070940      0.00540012     -0.00065494      0.00404956
    2
 MD step:         350 time  0.84660951427675002     
 H     -0.00807626      0.00072485     -0.37272151     -0.00960257      0.00085869     -0.00669074
 H      0.00466087     -0.00055313      0.37128238      0.00556837     -0.00065586      0.00499086
    2
 MD step:         400 time  0.96755373060200001     
 H     -0.00924640      0.00082873     -0.37354729     -0.00991800      0.00085927     -0.00706320
 H      0.00534309     -0.00063248      0.37190257      0.00588380     -0.00065644      0.00536333
    2
 MD step:         450 time   1.0884979469272500     
 H     -0.01045141      0.00093272     -0.37444020     -0.00974304      0.00086050     -0.00777951
 H      0.00606019     -0.00071194      0.37258989      0.00570884     -0.00065767      0.00607964
    2
 MD step:         500 time   1.2094421632525001     
 H     -0.01160543      0.00103683     -0.37541601     -0.00948844      0.00086080     -0.00810485
 H      0.00672630     -0.00079152      0.37336011      0.00545424     -0.00065797      0.00640498
    2
 MD step:         550 time   1.3303863795777500     
 H     -0.01274933      0.00114098     -0.37643647     -0.00944693      0.00086191     -0.00917901
 H      0.00738228     -0.00087114      0.37417498      0.00541273     -0.00065907      0.00747913
    2
 MD step:         600 time   1.4513305959030001     
 H     -0.01390232      0.00124530     -0.37761421     -0.00956489      0.00086244     -0.00983499
 H      0.00804736     -0.00095092      0.37514713      0.00553069     -0.00065961      0.00813512
    2
 MD step:         650 time   1.5722748122282502     
 H     -0.01507074      0.00134958     -0.37880146     -0.00992756      0.00086228     -0.00996110
 H      0.00872787     -0.00103067      0.37612879      0.00589335     -0.00065945      0.00826123
    2
 MD step:         700 time   1.6932190285535000     
 H     -0.01628824      0.00145390     -0.38002291     -0.00992378      0.00086278     -0.01019671
 H      0.00945745     -0.00111046      0.37714465      0.00588958     -0.00065995      0.00849683
    2
 MD step:         750 time   1.8141632448787501     
 H     -0.01746123      0.00155821     -0.38125585     -0.00963269      0.00086171     -0.01001270
 H      0.01014253     -0.00119024      0.37817200      0.00559849     -0.00065888      0.00831282
    2
 MD step:         800 time   1.9351074612040000     
 H     -0.01862084      0.00166236     -0.38246378     -0.00949406      0.00086131     -0.01038067
 H      0.01081422     -0.00126986      0.37917433      0.00545985     -0.00065847      0.00868080
    2
 MD step:         850 time   2.0560516775292501     
 H     -0.01977022      0.00176654     -0.38377530     -0.00952875      0.00086065     -0.01088110
 H      0.01147569     -0.00134951      0.38028027      0.00549454     -0.00065782      0.00918122
    2
 MD step:         900 time   2.1769958938545000     
 H     -0.02092835      0.00187045     -0.38505515     -0.00977230      0.00085818     -0.01050460
 H      0.01214591     -0.00142889      0.38135452      0.00573810     -0.00065535      0.00880473
    2
 MD step:         950 time   2.2979401101797499     
 H     -0.02214282      0.00197418     -0.38632413     -0.01007233      0.00085692     -0.01037428
 H      0.01287246     -0.00150808      0.38241792      0.00603812     -0.00065409      0.00867441
    2
 MD step:        1000 time   2.4188843265050002     
 H     -0.02332835      0.00207764     -0.38754686     -0.00965253      0.00085365     -0.00976844
 H      0.01357008     -0.00158701      0.38343506      0.00561833     -0.00065082      0.00806856
    2
 MD step:        1050 time   2.5398285428302501     
 H     -0.02449442      0.00218062     -0.38867433     -0.00954601      0.00084998     -0.00919214
 H      0.01424824     -0.00166546      0.38435693      0.00551180     -0.00064714      0.00749227
    2
 MD step:        1100 time   2.6607727591554999     
 H     -0.02563702      0.00228332     -0.38982839     -0.00942821      0.00084789     -0.00969248
 H      0.01490292     -0.00174363      0.38530541      0.00539400     -0.00064506      0.00799260
    2
 MD step:        1150 time   2.7817169754807503     
 H     -0.02677695      0.00238550     -0.39093806     -0.00947806      0.00084191     -0.00872688
 H      0.01555493     -0.00182128      0.38620948      0.00544386     -0.00063908      0.00702700
    2
 MD step:        1200 time   2.9026611918060001     
 H     -0.02796020      0.00248708     -0.39197565     -0.01003844      0.00083809     -0.00837440
 H      0.01625027     -0.00189833      0.38704149      0.00600424     -0.00063526      0.00667452
    2
 MD step:        1250 time   3.0236054081312500     
 H     -0.02915098      0.00258814     -0.39293675     -0.00957700      0.00083255     -0.00747460
 H      0.01695314     -0.00197486      0.38779699      0.00554279     -0.00062972      0.00577473
    2
 MD step:        1300 time   3.1445496244565003     
 H     -0.03030316      0.00268837     -0.39376304     -0.00949744      0.00082492     -0.00618722
 H      0.01761741     -0.00205056      0.38841769      0.00546324     -0.00062209      0.00448734
    2
 MD step:        1350 time   3.2654938407817502     
 H     -0.03143322      0.00278787     -0.39450935     -0.00922442      0.00082058     -0.00634611
 H      0.01825956     -0.00212552      0.38895841      0.00519021     -0.00061775      0.00464623
    2
 MD step:        1400 time   3.3864380571070001     
 H     -0.03254771      0.00288668     -0.39524073     -0.00918816      0.00081239     -0.00540495
 H      0.01888613     -0.00219981      0.38948420      0.00515396     -0.00060956      0.00370508
    2
 MD step:        1450 time   3.5073822734322500     
 H     -0.03367534      0.00298444     -0.39583841     -0.00960849      0.00080481     -0.00462565
 H      0.01952585     -0.00227304      0.38987630      0.00557429     -0.00060198      0.00292577
    2
 MD step:        1500 time   3.6283264897575003     
 H     -0.03485098      0.00308139     -0.39634774     -0.00956596      0.00079788     -0.00368851
 H      0.02021357     -0.00234545      0.39018004      0.00553176     -0.00059505      0.00198863
    2
 MD step:        1550 time   3.7492707060827501     
 H     -0.03597779      0.00317732     -0.39671921     -0.00921207      0.00078795     -0.00234478
 H      0.02085247     -0.00241685      0.39034592      0.00517787     -0.00058512      0.00064490
    2
 MD step:        1600 time   3.8702149224080000     
 H     -0.03708283      0.00327203     -0.39692882     -0.00899056      0.00077937     -0.00151130
 H      0.02146959     -0.00248703      0.39034994      0.00495636     -0.00057654     -0.00018858
    2
 MD step:        1650 time   3.9911591387332503     
 H     -0.03816156      0.00336590     -0.39712040     -0.00890490      0.00077204     -0.00136781
 H      0.02206041     -0.00255637      0.39033593      0.00487069     -0.00056921     -0.00033207
    2
 MD step:        1700 time   4.1121033550585002     
 H     -0.03923556      0.00345853     -0.39719448     -0.00894548      0.00076036     -0.00000423
 H      0.02264650     -0.00262447      0.39020441      0.00491128     -0.00055753     -0.00169564
    2
 MD step:        1750 time   4.2330475713837501     
 H     -0.04035309      0.00354998     -0.39715014     -0.00943160      0.00075214      0.00078883
 H      0.02327612     -0.00269138      0.38995448      0.00539739     -0.00054931     -0.00248870
    2
 MD step:        1800 time   4.3539917877090000     
 H     -0.04146240      0.00364037     -0.39698763     -0.00887336      0.00074217      0.00191431
 H      0.02389751     -0.00275725      0.38958638      0.00483916     -0.00053934     -0.00361418
    2
 MD step:        1850 time   4.4749360040342498     
 H     -0.04252583      0.00372938     -0.39666540     -0.00872361      0.00072991      0.00337811
 H      0.02447302     -0.00282173      0.38905856      0.00468941     -0.00052708     -0.00507799
    2
 MD step:        1900 time   4.5958802203594997     
 H     -0.04356444      0.00381722     -0.39625232     -0.00851205      0.00072299      0.00327772
 H      0.02502373     -0.00288503      0.38843990      0.00447784     -0.00052016     -0.00497760
    2
 MD step:        1950 time   4.7168244366847505     
 H     -0.04459373      0.00390405     -0.39581291     -0.00846902      0.00071145      0.00430672
 H      0.02556510     -0.00294733      0.38779489      0.00443481     -0.00050862     -0.00600660
    2
 MD step:        2000 time   4.8377686530100004     
 H     -0.04563413      0.00398944     -0.39523376     -0.00888248      0.00070141      0.00514178
 H      0.02611759     -0.00300819      0.38701015      0.00484828     -0.00049858     -0.00684166
    2
 MD step:        2050 time   4.9587128693352502     
 H     -0.04671655      0.00407380     -0.39456429     -0.00874997      0.00069315      0.00597742
 H      0.02671210     -0.00306801      0.38613509      0.00471577     -0.00049032     -0.00767729
    2
 MD step:        2100 time   5.0796570856605001     
 H     -0.04774375      0.00415698     -0.39378118     -0.00837894      0.00068175      0.00710258
 H      0.02725138     -0.00312666      0.38514640      0.00434473     -0.00047892     -0.00880245
    2
 MD step:        2150 time   5.2006013019857500     
 H     -0.04874671      0.00423881     -0.39286872     -0.00817033      0.00067324      0.00756319
 H      0.02776643     -0.00318397      0.38402834      0.00413613     -0.00047041     -0.00926307
    2
 MD step:        2200 time   5.3215455183109999     
 H     -0.04973330      0.00431991     -0.39197884     -0.00816654      0.00066655      0.00749117
 H      0.02826510     -0.00324053      0.38293287      0.00413234     -0.00046372     -0.00919104
    2
 MD step:        2250 time   5.4424897346362506     
 H     -0.05071898      0.00439980     -0.39100459     -0.00826264      0.00065580      0.00841728
 H      0.02876287     -0.00329590      0.38175303      0.00422844     -0.00045297     -0.01011716
    2
 MD step:        2300 time   5.5634339509615005     
 H     -0.05175367      0.00447875     -0.38996595     -0.00866943      0.00065014      0.00880318
 H      0.02930965     -0.00335032      0.38050880      0.00463523     -0.00044731     -0.01050305
    2
 MD step:        2350 time   5.6843781672867504     
 H     -0.05276699      0.00455695     -0.38886623     -0.00814150      0.00064253      0.00940338
 H      0.02983505     -0.00340398      0.37920349      0.00410730     -0.00043970     -0.01110326
    2
 MD step:        2400 time   5.8053223836120003     
 H     -0.05374727      0.00463408     -0.38767206     -0.00803178      0.00063417      0.01011950
 H      0.03032742     -0.00345658      0.37780373      0.00399757     -0.00043134     -0.01181938
    2
 MD step:        2450 time   5.9262665999372501     
 H     -0.05470848      0.00471071     -0.38650056     -0.00794197      0.00063286      0.00929101
 H      0.03080072     -0.00350868      0.37642664      0.00390777     -0.00043003     -0.01099089
    2
 MD step:        2500 time   6.0472108162625000     
 H     -0.05566790      0.00478678     -0.38534462     -0.00794183      0.00062496      0.00986186
 H      0.03127223     -0.00356021      0.37506511      0.00390763     -0.00042213     -0.01156174
    2
 MD step:        2550 time   6.1681550325877499     
 H     -0.05666445      0.00486222     -0.38416222     -0.00854755      0.00062328      0.00968201
 H      0.03178086     -0.00361112      0.37367712      0.00451335     -0.00042045     -0.01138188
    2
 MD step:        2600 time   6.2890992489130007     
 H     -0.05768193      0.00493748     -0.38298328     -0.00816680      0.00062068      0.00984364
 H      0.03231042     -0.00366186      0.37229259      0.00413260     -0.00041785     -0.01154351
    2
 MD step:        2650 time   6.4100434652382505     
 H     -0.05866640      0.00501226     -0.38176601     -0.00814208      0.00061613      0.01026808
 H      0.03280698     -0.00371210      0.37086973      0.00410787     -0.00041330     -0.01196796
    2
 MD step:        2700 time   6.5309876815635004     
 H     -0.05963729      0.00508697     -0.38058376     -0.00795338      0.00061995      0.00910203
 H      0.03328996     -0.00376228      0.36948189      0.00391918     -0.00041712     -0.01080190
    2
 MD step:        2750 time   6.6519318978887503     
 H     -0.06060030      0.00516188     -0.37949865     -0.00796285      0.00061742      0.00906666
 H      0.03376506     -0.00381266      0.36819119      0.00392865     -0.00041459     -0.01076653
    2
 MD step:        2800 time   6.7728761142140002     
 H     -0.06159457      0.00523671     -0.37844381     -0.00858783      0.00062128      0.00827407
 H      0.03427141     -0.00386296      0.36693076      0.00455363     -0.00041845     -0.00997395
    2
 MD step:        2850 time   6.8938203305392500     
 H     -0.06263599      0.00531209     -0.37746525     -0.00844625      0.00062399      0.00802282
 H      0.03482492     -0.00391380      0.36574661      0.00441204     -0.00042116     -0.00972270
    2
 MD step:        2900 time   7.0147645468644999     
 H     -0.06365991      0.00538760     -0.37649637     -0.00855622      0.00062495      0.00802049
 H      0.03536092     -0.00396479      0.36457214      0.00452202     -0.00042211     -0.00972036
    2
 MD step:        2950 time   7.1357087631897507     
 H     -0.06468139      0.00546369     -0.37559567     -0.00831050      0.00063395      0.00664464
 H      0.03589449     -0.00401634      0.36346585      0.00427630     -0.00043112     -0.00834452
    2
 MD step:        3000 time   7.2566529795150005     
 H     -0.06568562      0.00554061     -0.37483547     -0.00831218      0.00063648      0.00617669
 H      0.03641081     -0.00406873      0.36250006      0.00427798     -0.00043365     -0.00787656
    2
 MD step:        3050 time   7.3775971958402504     
 H     -0.06671979      0.00561811     -0.37416404     -0.00891704      0.00064655      0.00477371
 H      0.03695706     -0.00412170      0.36162304      0.00488283     -0.00044372     -0.00647359
    2
 MD step:        3100 time   7.4985414121655003     
 H     -0.06781007      0.00569681     -0.37363083     -0.00893813      0.00065321      0.00423859
 H      0.03755943     -0.00417587      0.36088424      0.00490392     -0.00045038     -0.00593847
    2
 MD step:        3150 time   7.6194856284907502     
 H     -0.06890684      0.00577615     -0.37314036     -0.00926441      0.00065936      0.00386191
 H      0.03816829     -0.00423068      0.36018817      0.00523021     -0.00045653     -0.00556178
    2
 MD step:        3200 time   7.7404298448160000     
 H     -0.07001387      0.00585665     -0.37275031     -0.00897096      0.00067202      0.00243259
 H      0.03878740     -0.00428665      0.35959253      0.00493676     -0.00046919     -0.00413246
    2
 MD step:        3250 time   7.8613740611412499     
 H     -0.07109606      0.00593832     -0.37250104     -0.00896302      0.00067732      0.00184812
 H      0.03938168     -0.00434378      0.35913768      0.00492881     -0.00047449     -0.00354800
    2
 MD step:        3300 time   7.9823182774665007     
 H     -0.07220483      0.00602106     -0.37238140     -0.00948020      0.00069203      0.00000683
 H      0.04000254     -0.00440199      0.35881245      0.00544600     -0.00048920     -0.00170671
    2
 MD step:        3350 time   8.1032624937917497     
 H     -0.07336390      0.00610530     -0.37242746     -0.00957795      0.00069939     -0.00056274
 H      0.04067369     -0.00446171      0.35865291      0.00554375     -0.00049655     -0.00113714
    2
 MD step:        3400 time   8.2242067101170004     
 H     -0.07455353      0.00619041     -0.37253298     -0.01012334      0.00070880     -0.00120955
 H      0.04137540     -0.00452228      0.35855285      0.00608913     -0.00050597     -0.00049032
    2
 MD step:        3450 time   8.3451509264422494     
 H     -0.07576268      0.00627692     -0.37274714     -0.00978864      0.00072108     -0.00238192
 H      0.04209664     -0.00458426      0.35856142      0.00575443     -0.00051825      0.00068205
    2
 MD step:        3500 time   8.4660951427675002     
 H     -0.07694432      0.00636444     -0.37306403     -0.00978505      0.00072610     -0.00282666
 H      0.04279037     -0.00464726      0.35867272      0.00575085     -0.00052327      0.00112678
    2
 MD step:        3550 time   8.5870393590927510     
 H     -0.07814230      0.00645315     -0.37351717     -0.01011057      0.00074117     -0.00472845
 H      0.04350044     -0.00471143      0.35892026      0.00607637     -0.00053834      0.00302858
    2
 MD step:        3600 time   8.7079835754179999     
 H     -0.07937455      0.00654313     -0.37412213     -0.01022406      0.00074552     -0.00511496
 H      0.04424477     -0.00477688      0.35931964      0.00618985     -0.00054269      0.00341508
    2
 MD step:        3650 time   8.8289277917432507     
 H     -0.08065148      0.00663380     -0.37478441     -0.01089802      0.00075451     -0.00584238
 H      0.04503379     -0.00484301      0.35977632      0.00686382     -0.00055167      0.00414250
    2
 MD step:        3700 time   8.9498720080684997     
 H     -0.08195435      0.00672557     -0.37553147     -0.01055608      0.00076194     -0.00649195
 H      0.04584874     -0.00491026      0.36031780      0.00652188     -0.00055911      0.00479207
    2
 MD step:        3750 time   9.0708162243937505     
 H     -0.08322984      0.00681778     -0.37632121     -0.01055202      0.00076315     -0.00659115
 H      0.04663633     -0.00497794      0.36090194      0.00651782     -0.00056032      0.00489128
    2
 MD step:        3800 time   9.1917604407189994     
 H     -0.08450589      0.00691072     -0.37720977     -0.01061927      0.00077374     -0.00816498
 H      0.04742446     -0.00504635      0.36158492      0.00658507     -0.00057091      0.00646511
    2
 MD step:        3850 time   9.3127046570442502     
 H     -0.08579478      0.00700428     -0.37821118     -0.01067543      0.00077201     -0.00823314
 H      0.04822544     -0.00511538      0.36238074      0.00664123     -0.00056918      0.00653327
    2
 MD step:        3900 time   9.4336488733695010     
 H     -0.08712462      0.00709787     -0.37924237     -0.01136091      0.00077632     -0.00882189
 H      0.04906736     -0.00518443      0.36320634      0.00732671     -0.00057348      0.00712201
    2
 MD step:        3950 time   9.5545930896947500     
 H     -0.08848914      0.00719186     -0.38031754     -0.01105930      0.00077624     -0.00888670
 H      0.04994396     -0.00525389      0.36407591      0.00702510     -0.00057341      0.00718683
    2
 MD step:        4000 time   9.6755373060200007     
 H     -0.08982316      0.00728540     -0.38137051     -0.01103401      0.00077046     -0.00849571
 H      0.05079007     -0.00532290      0.36492329      0.00699981     -0.00056762      0.00679584
    2
 MD step:        4050 time   9.7964815223452497     
 H     -0.09114468      0.00737872     -0.38244679     -0.01084962      0.00077323     -0.00947492
 H      0.05162368     -0.00539169      0.36579398      0.00681541     -0.00057040      0.00777504
    2
 MD step:        4100 time   9.9174257386705005     
 H     -0.09245492      0.00747186     -0.38359569     -0.01078950      0.00076426     -0.00923535
 H      0.05244601     -0.00546029      0.36673730      0.00675529     -0.00056143      0.00753548
    2
 MD step:        4150 time   10.038369954995749     
 H     -0.09378431      0.00756397     -0.38472067     -0.01133404      0.00076034     -0.00947369
 H      0.05328749     -0.00552788      0.36765669      0.00729984     -0.00055751      0.00777381
    2
 MD step:        4200 time   10.159314171321000     
 H     -0.09516135      0.00765563     -0.38585465     -0.01119154      0.00075302     -0.00911413
 H      0.05417661     -0.00559500      0.36858508      0.00715733     -0.00055019      0.00741425
    2
 MD step:        4250 time   10.280258387646251     
 H     -0.09649976      0.00774589     -0.38691126     -0.01105277      0.00073894     -0.00826292
 H      0.05502711     -0.00566074      0.36943609      0.00701856     -0.00053611      0.00656304
    2
 MD step:        4300 time   10.401202603971500     
 H     -0.09782126      0.00783474     -0.38789919     -0.01073789      0.00073185     -0.00839701
 H      0.05586070     -0.00572505      0.37021843      0.00670369     -0.00052901      0.00669713
    2
 MD step:        4350 time   10.522146820296751     
 H     -0.09910805      0.00792264     -0.38892504     -0.01054550      0.00071814     -0.00816650
 H      0.05665957     -0.00578842      0.37103869      0.00651130     -0.00051531      0.00646662
    2
 MD step:        4400 time   10.643091036622000     
 H     -0.10038405      0.00800841     -0.38987051     -0.01074072      0.00070296     -0.00774056
 H      0.05744766     -0.00584966      0.37177858      0.00670652     -0.00050013      0.00604068
    2
 MD step:        4450 time   10.764035252947250     
 H     -0.10171154      0.00809281     -0.39079341     -0.01096449      0.00069101     -0.00730514
 H      0.05828723     -0.00590953      0.37249589      0.00693028     -0.00048818      0.00560527
    2
 MD step:        4500 time   10.884979469272501     
 H     -0.10300447      0.00817513     -0.39161008     -0.01054354      0.00066998     -0.00616327
 H      0.05909225     -0.00596732      0.37310696      0.00650934     -0.00046715      0.00446339
    2
 MD step:        4550 time   11.005923685597750     
 H     -0.10427206      0.00825490     -0.39228431     -0.01031139      0.00065159     -0.00528390
 H      0.05987192     -0.00602256      0.37357560      0.00627719     -0.00044876      0.00358402
    2
 MD step:        4600 time   11.126867901923001     
 H     -0.10549294      0.00833293     -0.39293817     -0.00994912      0.00063691     -0.00535244
 H      0.06060489     -0.00607605      0.37402387      0.00591491     -0.00043408      0.00365256
    2
 MD step:        4650 time   11.247812118248250     
 H     -0.10668066      0.00840831     -0.39350904     -0.00976361      0.00061085     -0.00419680
 H      0.06130470     -0.00612691      0.37438915      0.00572941     -0.00040802      0.00249692
    2
 MD step:        4700 time   11.368756334573501     
 H     -0.10789175      0.00848120     -0.39399889     -0.01025276      0.00059480     -0.00383291
 H      0.06202788     -0.00617526      0.37467342      0.00621855     -0.00039197      0.00213303
    2
 MD step:        4750 time   11.489700550898750     
 H     -0.10910763      0.00855180     -0.39439349     -0.00974162      0.00057105     -0.00261607
 H      0.06275584     -0.00622133      0.37486242      0.00570742     -0.00036822      0.00091619
    2
 MD step:        4800 time   11.610644767224001     
 H     -0.11027142      0.00861922     -0.39462069     -0.00953357      0.00054397     -0.00113009
 H      0.06343172     -0.00626422      0.37488403      0.00549936     -0.00034113     -0.00056978
    2
 MD step:        4850 time   11.731588983549251     
 H     -0.11139601      0.00868392     -0.39473407     -0.00906046      0.00052672     -0.00097323
 H      0.06406839     -0.00630438      0.37479182      0.00502626     -0.00032389     -0.00072664
    2
 MD step:        4900 time   11.852533199874500     
 H     -0.11247509      0.00874621     -0.39481563     -0.00876365      0.00050008     -0.00002966
 H      0.06465956     -0.00634215      0.37466779      0.00472945     -0.00029724     -0.00167022
    2
 MD step:        4950 time   11.973477416199751     
 H     -0.11353561      0.00880512     -0.39476071     -0.00896325      0.00047660      0.00072037
 H      0.06523217     -0.00637652      0.37440728      0.00492905     -0.00027376     -0.00242025
    2
 MD step:        5000 time   12.094421632525000     
 H     -0.11463689      0.00886162     -0.39463017     -0.00897998      0.00045602      0.00161326
 H      0.06584553     -0.00640849      0.37407115      0.00494578     -0.00025319     -0.00331314
    2
 MD step:        5050 time   12.215365848850251     
 H     -0.11568366      0.00891508     -0.39435329     -0.00846320      0.00042771      0.00301525
 H      0.06640439     -0.00643742      0.37358868      0.00442899     -0.00022488     -0.00471512
    2
 MD step:        5100 time   12.336310065175500     
 H     -0.11669153      0.00896519     -0.39390749     -0.00812420      0.00040403      0.00401401
 H      0.06692434     -0.00646300      0.37293729      0.00409000     -0.00020120     -0.00571388
    2
 MD step:        5150 time   12.457254281500751     
 H     -0.11765103      0.00901305     -0.39343156     -0.00780539      0.00038559      0.00405441
 H      0.06739593     -0.00648633      0.37225577      0.00377118     -0.00018276     -0.00575428
    2
 MD step:        5200 time   12.578198497826001     
 H     -0.11857744      0.00905783     -0.39285973     -0.00760002      0.00035652      0.00527658
 H      0.06783443     -0.00650658      0.37147835      0.00356582     -0.00015369     -0.00697646
    2
 MD step:        5250 time   12.699142714151250     
 H     -0.11952755      0.00909986     -0.39219709     -0.00807672      0.00033923      0.00573960
 H      0.06829663     -0.00652408      0.37061012      0.00404251     -0.00013640     -0.00743948
    2
 MD step:        5300 time   12.820086930476501     
 H     -0.12047552      0.00913957     -0.39144045     -0.00750632      0.00031607      0.00681377
 H      0.06875668     -0.00653926      0.36964789      0.00347211     -0.00011324     -0.00851365
    2
 MD step:        5350 time   12.941031146801750     
 H     -0.12136747      0.00917622     -0.39053650     -0.00726678      0.00029045      0.00811906
 H      0.06916072     -0.00655137      0.36853835      0.00323258     -0.00008762     -0.00981894
    2
 MD step:        5400 time   13.061975363127001     
 H     -0.12222220      0.00921050     -0.38955296     -0.00690132      0.00027754      0.00793218
 H      0.06952754     -0.00656113      0.36734922      0.00286712     -0.00007471     -0.00963206
    2
 MD step:        5450 time   13.182919579452250     
 H     -0.12304572      0.00924289     -0.38856833     -0.00667701      0.00025495      0.00866114
 H      0.06986314     -0.00656898      0.36615900      0.00264281     -0.00005212     -0.01036102
    2
 MD step:        5500 time   13.303863795777501     
 H     -0.12386385      0.00927261     -0.38748989     -0.00703792      0.00023915      0.00899330
 H      0.07019336     -0.00657417      0.36487497      0.00300372     -0.00003632     -0.01069318
    2
 MD step:        5550 time   13.424808012102751     
 H     -0.12472777      0.00930084     -0.38637778     -0.00696946      0.00022577      0.00953708
 H      0.07056937     -0.00657787      0.36355727      0.00293526     -0.00002293     -0.01123696
    2
 MD step:        5600 time   13.545752228428000     
 H     -0.12554253      0.00932701     -0.38517350     -0.00664518      0.00020647      0.01045606
 H      0.07089621     -0.00657950      0.36214740      0.00261098     -0.00000364     -0.01215594
    2
 MD step:        5650 time   13.666696444753251     
 H     -0.12633407      0.00935118     -0.38387997     -0.00638647      0.00019667      0.01053751
 H      0.07119984     -0.00657915      0.36064828      0.00235227      0.00000616     -0.01223738
    2
 MD step:        5700 time   13.787640661078500     
 H     -0.12709700      0.00937461     -0.38264165     -0.00624242      0.00018754      0.01029238
 H      0.07147485     -0.00657805      0.35920437      0.00220822      0.00001529     -0.01199225
    2
 MD step:        5750 time   13.908584877403751     
 H     -0.12784868      0.00939632     -0.38136292     -0.00638096      0.00017528      0.01055074
 H      0.07173862     -0.00657522      0.35772005      0.00234676      0.00002755     -0.01225062
    2
 MD step:        5800 time   14.029529093729000     
 H     -0.12866059      0.00941745     -0.38010691     -0.00682548      0.00017328      0.01038820