    2
 MD step:           0 time   0.0000000000000000     
 H      0.00000000      0.00000000     -0.37000000      0.04123661      0.01105770     -0.00745142
 H      0.00000000      0.00000000      0.37000000      0.01208263     -0.01426951     -0.00297683
    2
 MD step:          50 time  0.12094421632525000     
 H      0.00498737      0.00133737     -0.37090769      0.04123753      0.01105791     -0.00755577
 H      0.00146128     -0.00172582      0.36964646      0.01208171     -0.01426972     -0.00287248
    2
 MD step:         100 time  0.24188843265050000     
 H      0.00997486      0.00267479     -0.37182661      0.04123839      0.01105839     -0.00763550
 H      0.00292245     -0.00345169      0.36930414      0.01208085     -0.01427021     -0.00279275
    2
 MD step:         150 time  0.36283264897575002     
 H      0.01496258      0.00401227     -0.37275351      0.04124089      0.01105892     -0.00768744
 H      0.00438338     -0.00517762      0.36896980      0.01207835     -0.01427073     -0.00274081
    2
 MD step:         200 time  0.48377686530100000     
 H      0.01995061      0.00534981     -0.37368493      0.04124546      0.01105923     -0.00770997
 H      0.00584401     -0.00690361      0.36863999      0.01207378     -0.01427105     -0.00271828
    2
 MD step:         250 time  0.60472108162625005     
 H      0.02493915      0.00668735     -0.37461723      0.04124882      0.01105907     -0.00770190
 H      0.00730412     -0.00862960      0.36831105      0.01207042     -0.01427089     -0.00272635
    2
 MD step:         300 time  0.72566529795150003     
 H      0.02992840      0.00802484     -0.37554665      0.04125347      0.01105816     -0.00766197
 H      0.00876352     -0.01035554      0.36797923      0.01206577     -0.01426997     -0.00276627
    2
 MD step:         350 time  0.84660951427675002     
 H      0.03491820      0.00936215     -0.37646927      0.04126058      0.01105621     -0.00758962
 H      0.01022237     -0.01208130      0.36764061      0.01205866     -0.01426802     -0.00283863
    2
 MD step:         400 time  0.96755373060200001     
 H      0.03990841      0.01069916     -0.37738117      0.04126285      0.01105296     -0.00748453
 H      0.01168082     -0.01380676      0.36729128      0.01205639     -0.01426477     -0.00294372
    2
 MD step:         450 time   1.0884979469272500     
 H      0.04489907      0.01203567     -0.37827837      0.04126272      0.01104812     -0.00734659
 H      0.01313881     -0.01553172      0.36692724      0.01205651     -0.01425994     -0.00308166
    2
 MD step:         500 time   1.2094421632525001     
 H      0.04988991      0.01337150     -0.37915693      0.04126729      0.01104147     -0.00717654
 H      0.01459663     -0.01725600      0.36654456      0.01205195     -0.01425329     -0.00325171
    2
 MD step:         550 time   1.3303863795777500     
 H      0.05488073      0.01470639     -0.38001304      0.04126833      0.01103279     -0.00697530
 H      0.01605446     -0.01897935      0.36613943      0.01205091     -0.01424460     -0.00345295
    2
 MD step:         600 time   1.4513305959030001     
 H      0.05987174      0.01604011     -0.38084294      0.04126384      0.01102184     -0.00674349
 H      0.01751210     -0.02070151      0.36570810      0.01205540     -0.01423365     -0.00368476
    2
 MD step:         650 time   1.5722748122282502     
 H      0.06486273      0.01737235     -0.38164303      0.04126468      0.01100846     -0.00648266
 H      0.01896977     -0.02242220      0.36524696      0.01205455     -0.01422028     -0.00394559
    2
 MD step:         700 time   1.6932190285535000     
 H      0.06985310      0.01870282     -0.38240990      0.04126322      0.01099249     -0.00619406
 H      0.02042805     -0.02414113      0.36475259      0.01205602     -0.01420431     -0.00423419
    2
 MD step:         750 time   1.8141632448787501     
 H      0.07484282      0.02003120     -0.38314025      0.04125057      0.01097380     -0.00587932
 H      0.02188699     -0.02585795      0.36422171      0.01206867     -0.01418561     -0.00454893
    2
 MD step:         800 time   1.9351074612040000     
 H      0.07983170      0.02135715     -0.38383109      0.04124150      0.01095234     -0.00554115
 H      0.02334676     -0.02757235      0.36365131      0.01207774     -0.01416415     -0.00488710
    2
 MD step:         850 time   2.0560516775292501     
 H      0.08481906      0.02268033     -0.38447974      0.04123575      0.01092808     -0.00518180
 H      0.02480805     -0.02928398      0.36303872      0.01208349     -0.01413989     -0.00524645
    2
 MD step:         900 time   2.1769958938545000     
 H      0.08980491      0.02400041     -0.38508376      0.04121793      0.01090103     -0.00480373
 H      0.02627085     -0.03099251      0.36238150      0.01210131     -0.01411284     -0.00562452
    2
 MD step:         950 time   2.2979401101797499     
 H      0.09478945      0.02531705     -0.38564108      0.04120068      0.01087126     -0.00441009
 H      0.02773497     -0.03269761      0.36167758      0.01211856     -0.01408308     -0.00601816
    2
 MD step:        1000 time   2.4188843265050002     
 H      0.09977195      0.02662993     -0.38614994      0.04119179      0.01083880     -0.00400261
 H      0.02920112     -0.03439894      0.36092521      0.01212745     -0.01405061     -0.00642564
    2
 MD step:        1050 time   2.5398285428302501     
 H      0.10475206      0.02793873     -0.38660882      0.04117035      0.01080376     -0.00358412
 H      0.03066967     -0.03609618      0.36012286      0.01214889     -0.01401557     -0.00684413
    2
 MD step:        1100 time   2.6607727591554999     
 H      0.10973003      0.02924314     -0.38701661      0.04114207      0.01076637     -0.00315828
 H      0.03214035     -0.03778905      0.35926941      0.01217717     -0.01397819     -0.00726997
    2
 MD step:        1150 time   2.7817169754807503     
 H      0.11470527      0.03054290     -0.38737256      0.04112611      0.01072678     -0.00272730
 H      0.03361376     -0.03947726      0.35836412      0.01219313     -0.01393860     -0.00770095
    2
 MD step:        1200 time   2.9026611918060001     
 H      0.11967727      0.03183775     -0.38767626      0.04110400      0.01068531     -0.00229502
 H      0.03509041     -0.04116056      0.35740659      0.01221524     -0.01389713     -0.00813323
    2
 MD step:        1250 time   3.0236054081312500     
 H      0.12464667      0.03312750     -0.38792782      0.04107059      0.01064235     -0.00186549
 H      0.03656967     -0.04283875      0.35639691      0.01224864     -0.01385417     -0.00856276
    2
 MD step:        1300 time   3.1445496244565003     
 H      0.12961339      0.03441196     -0.38812764      0.04105143      0.01059805     -0.00143994
 H      0.03805160     -0.04451166      0.35533550      0.01226781     -0.01380987     -0.00898831
    2
 MD step:        1350 time   3.2654938407817502     
 H      0.13457673      0.03569100     -0.38827642      0.04103413      0.01055281     -0.00102177
 H      0.03953691     -0.04617916      0.35422304      0.01228511     -0.01376462     -0.00940648
    2
 MD step:        1400 time   3.3864380571070001     
 H      0.13953720      0.03696454     -0.38837525      0.04099949      0.01050705     -0.00061439
 H      0.04102510     -0.04784115      0.35306063      0.01231974     -0.01371887     -0.00981386
    2
 MD step:        1450 time   3.5073822734322500     
 H      0.14449509      0.03823253     -0.38842550      0.04097440      0.01046100     -0.00021885
 H      0.04251587     -0.04949758      0.35184964      0.01234484     -0.01367281     -0.01020940
    2
 MD step:        1500 time   3.6283264897575003     
 H      0.14944962      0.03949495     -0.38842883      0.04096144      0.01041523      0.00016076
 H      0.04400998     -0.05114845      0.35059173      0.01235780     -0.01362705     -0.01058901
    2
 MD step:        1550 time   3.7492707060827501     
 H      0.15440130      0.04075189     -0.38838743      0.04093273      0.01037034      0.00052070
 H      0.04550696     -0.05279384      0.34928910      0.01238651     -0.01358216     -0.01094895
    2
 MD step:        1600 time   3.8702149224080000     
 H      0.15935114      0.04200346     -0.38830368      0.04090855      0.01032658      0.00086032
 H      0.04700577     -0.05443386      0.34794411      0.01241069     -0.01353839     -0.01128857
    2
 MD step:        1650 time   3.9911591387332503     
 H      0.16429876      0.04324983     -0.38818025      0.04090615      0.01028450      0.00117655
 H      0.04850681     -0.05606869      0.34655945      0.01241309     -0.01349631     -0.01160480
    2
 MD step:        1700 time   4.1121033550585002     
 H      0.16924435      0.04449125     -0.38802013      0.04089210      0.01024456      0.00146753
 H      0.05000987     -0.05769856      0.34513809      0.01242713     -0.01345638     -0.01189578
    2
 MD step:        1750 time   4.2330475713837501     
 H      0.17418919      0.04572797     -0.38782628      0.04087159      0.01020694      0.00173350
 H      0.05151368     -0.05932372      0.34368301      0.01244765     -0.01341875     -0.01216175
    2
 MD step:        1800 time   4.3539917877090000     
 H      0.17913321      0.04696031     -0.38760192      0.04087645      0.01017226      0.00197157
 H      0.05301832     -0.06094451      0.34219741      0.01244279     -0.01338407     -0.01239982
    2
 MD step:        1850 time   4.4749360040342498     
 H      0.18407625      0.04818866     -0.38735058      0.04088026      0.01014099      0.00218013
 H      0.05452393     -0.06256132      0.34068483      0.01243898     -0.01335280     -0.01260838
    2
 MD step:        1900 time   4.5958802203594997     
 H      0.18901994      0.04941345     -0.38707579      0.04087144      0.01011343      0.00235884
 H      0.05602889     -0.06417455      0.33914880      0.01244780     -0.01332524     -0.01278709
    2
 MD step:        1950 time   4.7168244366847505     
 H      0.19396503      0.05063515     -0.38678127      0.04088883      0.01009016      0.00250567
 H      0.05753245     -0.06578471      0.33759305      0.01243041     -0.01330197     -0.01293392
    2
 MD step:        2000 time   4.8377686530100004     
 H      0.19891131      0.05185431     -0.38647093      0.04091805      0.01007127      0.00262169
 H      0.05903483     -0.06739232      0.33602147      0.01240119     -0.01328309     -0.01304994
    2
 MD step:        2050 time   4.9587128693352502     
 H      0.20386016      0.05307146     -0.38614834      0.04092825      0.01005684      0.00270803
 H      0.06053463     -0.06899791      0.33443764      0.01239099     -0.01326866     -0.01313628
    2
 MD step:        2100 time   5.0796570856605001     
 H      0.20881283      0.05428714     -0.38581712      0.04095534      0.01004729      0.00276377
 H      0.06203062     -0.07060205      0.33284519      0.01236389     -0.01325910     -0.01319202
    2
 MD step:        2150 time   5.2006013019857500     
 H      0.21376888      0.05550197     -0.38548094      0.04100585      0.01004252      0.00279096
 H      0.06352322     -0.07220533      0.33124777      0.01231339     -0.01325433     -0.01321921
    2
 MD step:        2200 time   5.3215455183109999     
 H      0.21872935      0.05671652     -0.38514319      0.04103953      0.01004278      0.00278958
 H      0.06501140     -0.07380833      0.32964879      0.01227971     -0.01325459     -0.01321783
    2
 MD step:        2250 time   5.4424897346362506     
 H      0.22369617      0.05793142     -0.38480737      0.04108040      0.01004847      0.00275884
 H      0.06649323     -0.07541168      0.32805172      0.01223884     -0.01326028     -0.01318709
    2
 MD step:        2300 time   5.5634339509615005     
 H      0.22866933      0.05914732     -0.38447683      0.04115423      0.01005899      0.00270330
 H      0.06796873     -0.07701602      0.32645995      0.01216501     -0.01327080     -0.01313155
    2
 MD step:        2350 time   5.6843781672867504     
 H      0.23364924      0.06036477     -0.38415442      0.04121704      0.01007423      0.00262472
 H      0.06943748     -0.07862193      0.32487630      0.01210220     -0.01328604     -0.01305297
    2
 MD step:        2400 time   5.8053223836120003     
 H      0.23863787      0.06158435     -0.38384286      0.04127068      0.01009421      0.00252399
 H      0.07089749     -0.08022996      0.32330350      0.01204856     -0.01330602     -0.01295224
    2
 MD step:        2450 time   5.9262665999372501     
 H      0.24363537      0.06280659     -0.38354452      0.04135718      0.01011799      0.00240677
 H      0.07234865     -0.08184064      0.32174393      0.01196206     -0.01332980     -0.01283502
    2
 MD step:        2500 time   6.0472108162625000     
 H      0.24864138      0.06403193     -0.38326135      0.04144469      0.01014566      0.00227333
 H      0.07379130     -0.08345444      0.32019952      0.01187455     -0.01335748     -0.01270158
    2
 MD step:        2550 time   6.1681550325877499     
 H      0.25365785      0.06526087     -0.38299531      0.04151281      0.01017734      0.00212392
 H      0.07522347     -0.08507183      0.31867224      0.01180643     -0.01338915     -0.01255217
    2
 MD step:        2600 time   6.2890992489130007     
 H      0.25868564      0.06649381     -0.38274792      0.04160914      0.01021165      0.00196549
 H      0.07664434     -0.08669322      0.31716362      0.01171010     -0.01342346     -0.01239374
    2
 MD step:        2650 time   6.4100434652382505     
 H      0.26372390      0.06773104     -0.38252016      0.04171983      0.01024827      0.00179991
 H      0.07805474     -0.08831890      0.31567462      0.01159940     -0.01346009     -0.01222816
    2
 MD step:        2700 time   6.5309876815635004     
 H      0.26877382      0.06897284     -0.38231278      0.04180131      0.01028675      0.00162952
 H      0.07945347     -0.08994914      0.31420601      0.01151792     -0.01349857     -0.01205777
    2
 MD step:        2750 time   6.6519318978887503     
 H      0.27383641      0.07021929     -0.38212587      0.04189463      0.01032548      0.00146151
 H      0.08083953     -0.09158405      0.31275786      0.01142461     -0.01353729     -0.01188976
    2
 MD step:        2800 time   6.7728761142140002     
 H      0.27891033      0.07147045     -0.38195914      0.04201392      0.01036442      0.00129596
 H      0.08221426     -0.09322366      0.31132990      0.01130532     -0.01357623     -0.01172421
    2
 MD step:        2850 time   6.8938203305392500     
 H      0.28399595      0.07272634     -0.38181230      0.04210557      0.01040330      0.00113389
 H      0.08357730     -0.09486800      0.30992182      0.01121367     -0.01361511     -0.01156214
    2
 MD step:        2900 time   7.0147645468644999     
 H      0.28909473      0.07398682     -0.38168444      0.04219230      0.01044049      0.00098187
 H      0.08492717     -0.09651693      0.30853272      0.01112694     -0.01365230     -0.01141012
    2
 MD step:        2950 time   7.1357087631897507     
 H      0.29420548      0.07525168     -0.38157431      0.04231216      0.01047560      0.00084105
 H      0.08626508     -0.09817024      0.30716135      0.01100708     -0.01368742     -0.01126930
    2
 MD step:        3000 time   7.2566529795150005     
 H      0.29932733      0.07652063     -0.38148044      0.04241001      0.01050767      0.00071488
 H      0.08759188     -0.09982764      0.30580625      0.01090923     -0.01371948     -0.01114313
    2
 MD step:        3050 time   7.3775971958402504     
 H      0.30446137      0.07779318     -0.38140058      0.04248049      0.01053508      0.00060899
 H      0.08890650     -0.10148864      0.30446515      0.01083875     -0.01374690     -0.01103723
    2
 MD step:        3100 time   7.4985414121655003     
 H      0.30960650      0.07906875     -0.38133232      0.04258161      0.01055790      0.00052247
 H      0.09021002     -0.10315266      0.30313566      0.01073763     -0.01376971     -0.01095072
    2
 MD step:        3150 time   7.6194856284907502     
 H      0.31476088      0.08034680     -0.38127336      0.04267599      0.01057543      0.00045718
 H      0.09150430     -0.10481916      0.30181546      0.01064325     -0.01378724     -0.01088543
    2
 MD step:        3200 time   7.7404298448160000     
 H      0.31992531      0.08162658     -0.38122079      0.04272960      0.01058665      0.00041611
 H      0.09278852     -0.10648739      0.30050166      0.01058964     -0.01379846     -0.01084436
    2
 MD step:        3250 time   7.8613740611412499     
 H      0.32509948      0.08290732     -0.38117172      0.04280461      0.01059151      0.00039862
 H      0.09406300     -0.10815658      0.29919135      0.01051462     -0.01380333     -0.01082687
    2
 MD step:        3300 time   7.9823182774665007     
 H      0.33028078      0.08418822     -0.38112319      0.04288861      0.01058839      0.00040960
 H      0.09533035     -0.10982593      0.29788158      0.01043063     -0.01380020     -0.01083785
    2
 MD step:        3350 time   8.1032624937917497     
 H      0.33546890      0.08546820     -0.38107149      0.04292181      0.01057656      0.00045059
 H      0.09659089     -0.11149436      0.29656864      0.01039743     -0.01378838     -0.01087884
    2
 MD step:        3400 time   8.2242067101170004     
 H      0.34066387      0.08674623     -0.38101309      0.04295621      0.01055650      0.00051900
 H      0.09784457     -0.11316084      0.29524901      0.01036303     -0.01376831     -0.01094725
    2
 MD step:        3450 time   8.3451509264422494     
 H      0.34586280      0.08802129     -0.38094464      0.04301525      0.01052684      0.00061845
 H      0.09909429     -0.11482435      0.29391932      0.01030398     -0.01373865     -0.01104670
    2
 MD step:        3500 time   8.4660951427675002     
 H      0.35106448      0.08929220     -0.38086241      0.04302951      0.01048804      0.00074646
 H      0.10034127     -0.11648371      0.29257585      0.01028973     -0.01369985     -0.01117471
    2
 MD step:        3550 time   8.5870393590927510     
 H      0.35626972      0.09055790     -0.38076310      0.04302469      0.01044090      0.00089944
 H      0.10158467     -0.11813786      0.29121531      0.01029455     -0.01365271     -0.01132769
    2
 MD step:        3600 time   8.7079835754179999     
 H      0.36147609      0.09181727     -0.38064344      0.04305333      0.01038300      0.00108431
 H      0.10282696     -0.11978568      0.28983442      0.01026591     -0.01359482     -0.01151256
    2
 MD step:        3650 time   8.8289277917432507     
 H      0.36668111      0.09306903     -0.38049970      0.04305005      0.01031499      0.00129808
 H      0.10407060     -0.12142589      0.28842944      0.01026919     -0.01352680     -0.01172633
    2
 MD step:        3700 time   8.9498720080684997     
 H      0.37188550      0.09431201     -0.38032856      0.04300385      0.01023804      0.00153612
 H      0.10531486     -0.12305732      0.28699706      0.01031539     -0.01344986     -0.01196437
    2
 MD step:        3750 time   9.0708162243937505     
 H      0.37708746      0.09554501     -0.38012679      0.04298876      0.01014995      0.00180443
 H      0.10656155     -0.12467877      0.28553405      0.01033047     -0.01336176     -0.01223268
    2
 MD step:        3800 time   9.1917604407189994     
 H      0.38228378      0.09676680     -0.37989115      0.04296640      0.01005262      0.00209633
 H      0.10781389     -0.12628901      0.28403718      0.01035284     -0.01326444     -0.01252458
    2
 MD step:        3850 time   9.3127046570442502     
 H      0.38747519      0.09797638     -0.37961917      0.04288983      0.00994812      0.00240500
 H      0.10907113     -0.12788704      0.28250396      0.01042941     -0.01315993     -0.01283325
    2
 MD step:        3900 time   9.4336488733695010     
 H      0.39266134      0.09917269     -0.37930832      0.04283393      0.00983373      0.00273777
 H      0.11033364     -0.12947181      0.28093187      0.01048531     -0.01304555     -0.01316602
    2
 MD step:        3950 time   9.5545930896947500     
 H      0.39783878      0.10035469     -0.37895612      0.04279632      0.00971105      0.00308937
 H      0.11160485     -0.13104225      0.27931843      0.01052292     -0.01292286     -0.01351762
    2
 MD step:        4000 time   9.6755373060200007     
 H      0.40300741      0.10152148     -0.37856066      0.04269980      0.00958183      0.00345422
 H      0.11288487     -0.13259749      0.27766174      0.01061944     -0.01279364     -0.01388247
    2
 MD step:        4050 time   9.7964815223452497     
 H      0.40816778      0.10267204     -0.37811974      0.04260026      0.00944369      0.00383856
 H      0.11417315     -0.13413650      0.27595958      0.01071898     -0.01265551     -0.01426681
    2
 MD step:        4100 time   9.9174257386705005     
 H      0.41331667      0.10380549     -0.37763154      0.04254048      0.00929896      0.00423542
 H      0.11547291     -0.13565840      0.27421015      0.01077876     -0.01251077     -0.01466367
    2
 MD step:        4150 time   10.038369954995749     
 H      0.41845320      0.10492124     -0.37709516      0.04243553      0.00915010      0.00463765
 H      0.11678504     -0.13716260      0.27241254      0.01088371     -0.01236192     -0.01506590
    2
 MD step:        4200 time   10.159314171321000     
 H      0.42357911      0.10601858     -0.37650941      0.04230610      0.00899584      0.00504858
 H      0.11810779     -0.13864839      0.27056555      0.01101314     -0.01220765     -0.01547683
    2
 MD step:        4250 time   10.280258387646251     
 H      0.42869255      0.10709703     -0.37587368      0.04223029      0.00883808      0.00546285
 H      0.11944299     -0.14011529      0.26866858      0.01108895     -0.01204989     -0.01589110
    2
 MD step:        4300 time   10.401202603971500     
 H      0.43379187      0.10815634     -0.37518808      0.04213268      0.00867789      0.00587752
 H      0.12079233     -0.14156306      0.26672174      0.01118656     -0.01188970     -0.01630577
    2
 MD step:        4350 time   10.522146820296751     
 H      0.43887902      0.10919602     -0.37445199      0.04198680      0.00851446      0.00629466
 H      0.12215384     -0.14299118      0.26472441      0.01133244     -0.01172627     -0.01672291
    2
 MD step:        4400 time   10.643091036622000     
 H      0.44395342      0.11021578     -0.37366543      0.04189011      0.00834970      0.00670933
 H      0.12352809     -0.14439940      0.26267662      0.01142913     -0.01156152     -0.01713758
    2
 MD step:        4450 time   10.764035252947250     
 H      0.44901271      0.11121567     -0.37282921      0.04180222      0.00818415      0.00712019
 H      0.12491746     -0.14578774      0.26057916      0.01151701     -0.01139597     -0.01754844
    2
 MD step:        4500 time   10.884979469272501     
 H      0.45405868      0.11219553     -0.37194359      0.04165749      0.00801930      0.00752368
 H      0.12632013     -0.14715604      0.25843231      0.01166175     -0.01123111     -0.01795193
    2
 MD step:        4550 time   11.005923685597750     
 H      0.45909286      0.11315555     -0.37100977      0.04154981      0.00785770      0.00791378
 H      0.12773460     -0.14850451      0.25623725      0.01176943     -0.01106951     -0.01834203
    2
 MD step:        4600 time   11.126867901923001     
 H      0.46411327      0.11409624     -0.37002962      0.04148352      0.00769798      0.00829403
 H      0.12916285     -0.14983366      0.25399586      0.01183572     -0.01090979     -0.01872228
    2
 MD step:        4650 time   11.247812118248250     
 H      0.46912108      0.11501782     -0.36900428      0.04136358      0.00754193      0.00866047
 H      0.13060369     -0.15114369      0.25170928      0.01195566     -0.01075374     -0.01908871
    2
 MD step:        4700 time   11.368756334573501     
 H      0.47411922      0.11592079     -0.36793552      0.04125322      0.00739170      0.00900846
 H      0.13205421     -0.15243510      0.24937929      0.01206602     -0.01060351     -0.01943671
    2
 MD step:        4750 time   11.489700550898750     
 H      0.47910609      0.11680580     -0.36682545      0.04120368      0.00724395      0.00934603
 H      0.13351599     -0.15370857      0.24700799      0.01211556     -0.01045576     -0.01977428
    2
 MD step:        4800 time   11.610644767224001     
 H      0.48408161      0.11767331     -0.36567567      0.04111890      0.00710216      0.00966558
 H      0.13498913     -0.15496452      0.24459696      0.01220033     -0.01031398     -0.02009383
    2
 MD step:        4850 time   11.731588983549251     
 H      0.48904978      0.11852417     -0.36448861      0.04101835      0.00697001      0.00995941
 H      0.13646961     -0.15620383      0.24214867      0.01230089     -0.01018182     -0.02038766
    2
 MD step:        4900 time   11.852533199874500     
 H      0.49401064      0.11935940     -0.36326703      0.04098972      0.00684339      0.01023714
 H      0.13795741     -0.15742752      0.23966586      0.01232952     -0.01005521     -0.02066539
    2
 MD step:        4950 time   11.973477416199751     
 H      0.49896351      0.12017989     -0.36201335      0.04095818      0.00672573      0.01049173
 H      0.13945319     -0.15863646      0.23715094      0.01236106     -0.00993754     -0.02091998
    2
 MD step:        5000 time   12.094421632525000     
 H      0.50391278      0.12098684     -0.36073056      0.04088825      0.00661996      0.01071752
 H      0.14095257     -0.15983186      0.23460691      0.01243099     -0.00983177     -0.02114577
    2
 MD step:        5050 time   12.215365848850251     
 H      0.50885990      0.12178132     -0.35942132      0.04087864      0.00651991      0.01092821
 H      0.14245410     -0.16101479      0.23203644      0.01244060     -0.00973173     -0.02135646
    2
 MD step:        5100 time   12.336310065175500     
 H      0.51380320      0.12256427     -0.35808797      0.04089790      0.00642880      0.01111751
 H      0.14395945     -0.16218619      0.22944184      0.01242134     -0.00964061     -0.02154576
    2
 MD step:        5150 time   12.457254281500751     
 H      0.51874625      0.12333698     -0.35673347      0.04086755      0.00635025      0.01127850
 H      0.14546506     -0.16334735      0.22682611      0.01245169     -0.00956206     -0.02170675
    2
 MD step:        5200 time   12.578198497826001     
 H      0.52369207      0.12410057     -0.35536042      0.04087623      0.00627934      0.01142190
 H      0.14696790     -0.16449939      0.22419183      0.01244301     -0.00949115     -0.02185015
    2
 MD step:        5250 time   12.699142714151250     
 H      0.52863937      0.12485627     -0.35397150      0.04094736      0.00621933      0.01154163
 H      0.14846925     -0.16564354      0.22154166      0.01237188     -0.00943114     -0.02196987
    2
 MD step:        5300 time   12.820086930476501     
 H      0.53359086      0.12560559     -0.35256995      0.04097520      0.00617257      0.01163365
 H      0.14996641     -0.16678131      0.21887888      0.01234404     -0.00938438     -0.02206190
    2
 MD step:        5350 time   12.941031146801750     
 H      0.53855069      0.12634962     -0.35115805      0.04100833      0.00613316      0.01171017
 H      0.15145524     -0.16791379      0.21620574      0.01231091     -0.00934497     -0.02213842
    2
 MD step:        5400 time   13.061975363127001     
 H      0.54351785      0.12708942     -0.34973798      0.04111890      0.00610279      0.01176836
 H      0.15293673     -0.16904204      0.21352444      0.01220034     -0.00931460     -0.02219661
    2
 MD step:        5450 time   13.182919579452250     
 H      0.54849302      0.12782628     -0.34831232      0.04120161      0.00608237      0.01180695
 H      0.15441021     -0.17016734      0.21083754      0.01211763     -0.00929418     -0.02223520
    2
 MD step:        5500 time   13.303863795777501     
 H      0.55348038      0.12856097     -0.34688259      0.04125590      0.00606858      0.01183266
 H      0.15587151     -0.17129049      0.20814657      0.01206334     -0.00928040     -0.02226091
    2
 MD step:        5550 time   13.424808012102751     
 H      0.55848019      0.12929449     -0.34545069      0.04139157      0.00606397      0.01184116
 H      0.15732035     -0.17241246      0.20545344      0.01192767     -0.00927579     -0.02226941
    2
 MD step:        5600 time   13.545752228428000     
 H      0.56349198      0.13002813     -0.34401901      0.04153073      0.00606776      0.01183429
 H      0.15875721     -0.17353455      0.20276052      0.01178851     -0.00927958     -0.02226254
    2
 MD step:        5650 time   13.666696444753251     
 H      0.56851958      0.13076249     -0.34258861      0.04161557      0.00607689      0.01181797
 H      0.16017827     -0.17465736      0.20006889      0.01170367     -0.00928870     -0.02224622
    2
 MD step:        5700 time   13.787640661078500     
 H      0.57356441      0.13149826     -0.34116071      0.04176213      0.00609216      0.01179105
 H      0.16158209     -0.17578157      0.19737975      0.01155711     -0.00930397     -0.02221930
    2
 MD step:        5750 time   13.908584877403751     
 H      0.57862431      0.13223616     -0.33973656      0.04193820      0.00610950      0.01176086
 H      0.16297084     -0.17690793      0.19469436      0.01138104     -0.00932131     -0.02218911
    2
 MD step:        5800 time   14.029529093729000     
 H      0.58370114      0.13297622     -0.33831613      0.04204490      0.00612856      0.01172814