    2
 MD step:           0 time   0.0000000000000000     
 H      0.00000000      0.00000000     -0.37000000     -0.01426601     -0.01588038      0.02368494
 H      0.00000000      0.00000000      0.37000000      0.03100314     -0.01632956     -0.00903569
    2
 MD step:          50 time  0.12094421632525000     
 H     -0.00172545     -0.00192263     -0.36716049     -0.01426788     -0.01595120      0.02306946
 H      0.00374971     -0.00197297      0.36893223      0.03100501     -0.01625875     -0.00842021
    2
 MD step:         100 time  0.24188843265050000     
 H     -0.00345145     -0.00386352     -0.36443191     -0.01427428     -0.01610526      0.02219261
 H      0.00749996     -0.00392769      0.36797540      0.03101141     -0.01610469     -0.00754337
    2
 MD step:         150 time  0.36283264897575002     
 H     -0.00517845     -0.00581688     -0.36178762     -0.01428667     -0.01624031      0.02143103
 H      0.01125123     -0.00586994      0.36710285      0.03102380     -0.01596964     -0.00678179
    2
 MD step:         200 time  0.48377686530100000     
 H     -0.00690773     -0.00778630     -0.35925387     -0.01431098     -0.01626348      0.02047192
 H      0.01500476     -0.00779613      0.36634084      0.03104811     -0.01594647     -0.00582267
    2
 MD step:         250 time  0.60472108162625005     
 H     -0.00864038     -0.00975024     -0.35683705     -0.01434200     -0.01623220      0.01952105
 H      0.01876167     -0.00972780      0.36569576      0.03107913     -0.01597775     -0.00487180
    2
 MD step:         300 time  0.72566529795150003     
 H     -0.01037780     -0.01171708     -0.35455821     -0.01439401     -0.01633645      0.01798801
 H      0.02252336     -0.01165656      0.36518866      0.03113114     -0.01587349     -0.00333876
    2
 MD step:         350 time  0.84660951427675002     
 H     -0.01212237     -0.01370156     -0.35247539     -0.01445386     -0.01644166      0.01659141
 H      0.02629218     -0.01356769      0.36487758      0.03119099     -0.01576829     -0.00194217
    2
 MD step:         400 time  0.96755373060200001     
 H     -0.01387497     -0.01569986     -0.35055754     -0.01453298     -0.01662488      0.01506673
 H      0.03006904     -0.01546500      0.36473147      0.03127011     -0.01558506     -0.00041748
    2
 MD step:         450 time   1.0884979469272500     
 H     -0.01563832     -0.01770995     -0.34882494     -0.01462754     -0.01658235      0.01359812
 H      0.03385665     -0.01735051      0.36477062      0.03136468     -0.01562759      0.00105113
    2
 MD step:         500 time   1.2094421632525001     
 H     -0.01741342     -0.01971485     -0.34726427     -0.01472976     -0.01657933      0.01218253
 H      0.03765602     -0.01924122      0.36498169      0.03146689     -0.01563062      0.00246672
    2
 MD step:         550 time   1.3303863795777500     
 H     -0.01920299     -0.02172648     -0.34591297     -0.01486567     -0.01671016      0.01014489
 H      0.04146984     -0.02112520      0.36540213      0.03160280     -0.01549978      0.00450436
    2
 MD step:         600 time   1.4513305959030001     
 H     -0.02100845     -0.02375189     -0.34477889     -0.01499299     -0.01679641      0.00859820
 H      0.04529956     -0.02299539      0.36603979      0.03173012     -0.01541354      0.00605104
    2
 MD step:         650 time   1.5722748122282502     
 H     -0.02283113     -0.02579721     -0.34384926     -0.01514978     -0.01697799      0.00683041
 H      0.04914650     -0.02484568      0.36688190      0.03188691     -0.01523195      0.00781884
    2
 MD step:         700 time   1.6932190285535000     
 H     -0.02467253     -0.02784619     -0.34311058     -0.01529953     -0.01692242      0.00540770
 H      0.05301215     -0.02669230      0.36791496      0.03203666     -0.01528753      0.00924155
    2
 MD step:         750 time   1.8141632448787501     
 H     -0.02653220     -0.02989362     -0.34254067     -0.01546128     -0.01694198      0.00388814
 H      0.05689609     -0.02854048      0.36911680      0.03219841     -0.01526797      0.01076111
    2
 MD step:         800 time   1.9351074612040000     
 H     -0.02841292     -0.03194995     -0.34218249     -0.01563075     -0.01705138      0.00218809
 H      0.06080107     -0.03037976      0.37053036      0.03236788     -0.01515857      0.01246116
    2
 MD step:         850 time   2.0560516775292501     
 H     -0.03031237     -0.03401842     -0.34199638     -0.01578759     -0.01720886      0.00078395
 H      0.06472477     -0.03220689      0.37211599      0.03252472     -0.01500109      0.01386530
    2
 MD step:         900 time   2.1769958938545000     
 H     -0.03223204     -0.03611010     -0.34198637     -0.01595010     -0.01730205     -0.00049265
 H      0.06866870     -0.03401082      0.37387772      0.03268723     -0.01490789      0.01514189
    2
 MD step:         950 time   2.2979401101797499     
 H     -0.03416924     -0.03820024     -0.34210206     -0.01608112     -0.01728622     -0.00138330
 H      0.07263016     -0.03581628      0.37576515      0.03281825     -0.01492372      0.01603255
    2
 MD step:        1000 time   2.4188843265050002     
 H     -0.03612257     -0.04029169     -0.34233156     -0.01622494     -0.01731800     -0.00252379
 H      0.07660775     -0.03762045      0.37776639      0.03296207     -0.01489194      0.01717304
    2
 MD step:        1050 time   2.5398285428302501     
 H     -0.03809212     -0.04239238     -0.34269927     -0.01632997     -0.01740249     -0.00339157
 H      0.08060156     -0.03941536      0.37990585      0.03306710     -0.01480746      0.01804082
    2
 MD step:        1100 time   2.6607727591554999     
 H     -0.04007275     -0.04450766     -0.34315659     -0.01642772     -0.01762023     -0.00422891
 H      0.08460645     -0.04119569      0.38213490      0.03316485     -0.01458971      0.01887816
    2
 MD step:        1150 time   2.7817169754807503     
 H     -0.04206448     -0.04664425     -0.34370106     -0.01649595     -0.01764834     -0.00465779
 H      0.08862244     -0.04295470      0.38445112      0.03323308     -0.01456160      0.01930704
    2
 MD step:        1200 time   2.9026611918060001     
 H     -0.04406107     -0.04877776     -0.34427220     -0.01651555     -0.01764634     -0.00475117
 H      0.09264329     -0.04471679      0.38679400      0.03325268     -0.01456361      0.01940041
    2
 MD step:        1250 time   3.0236054081312500     
 H     -0.04606019     -0.05091311     -0.34486623     -0.01654333     -0.01769222     -0.00515476
 H      0.09666667     -0.04647705      0.38915977      0.03328046     -0.01451772      0.01980401
    2
 MD step:        1300 time   3.1445496244565003     
 H     -0.04805964     -0.05305921     -0.34549850     -0.01650309     -0.01777878     -0.00515279
 H      0.10069037     -0.04822657      0.39156379      0.03324022     -0.01443116      0.01980203
    2
 MD step:        1350 time   3.2654938407817502     
 H     -0.05005214     -0.05522050     -0.34611836     -0.01644890     -0.01799742     -0.00513301
 H      0.10470714     -0.04996088      0.39395538      0.03318603     -0.01421253      0.01978225
    2
 MD step:        1400 time   3.3864380571070001     
 H     -0.05203679     -0.05740186     -0.34672076     -0.01635604     -0.01801260     -0.00473172
 H      0.10871604     -0.05167512      0.39632953      0.03309318     -0.01419734      0.01938097
    2
 MD step:        1450 time   3.5073822734322500     
 H     -0.05400598     -0.05957785     -0.34725254     -0.01619867     -0.01798693     -0.00401696
 H      0.11270950     -0.05339474      0.39863305      0.03293580     -0.01422301      0.01866621
    2
 MD step:        1500 time   3.6283264897575003     
 H     -0.05595557     -0.06175474     -0.34770617     -0.01604513     -0.01804513     -0.00360004
 H      0.11668334     -0.05511346      0.40085842      0.03278226     -0.01416481      0.01824929
    2
 MD step:        1550 time   3.7492707060827501     
 H     -0.05788473     -0.06394639     -0.34811376     -0.01583465     -0.01816805     -0.00297086
 H      0.12063676     -0.05681742      0.40303775      0.03257178     -0.01404190      0.01762010
    2
 MD step:        1600 time   3.8702149224080000     
 H     -0.05978389     -0.06615026     -0.34841450     -0.01557537     -0.01831775     -0.00205274
 H      0.12456019     -0.05850915      0.40511024      0.03231250     -0.01389220      0.01670199
    2
 MD step:        1650 time   3.9911591387332503     
 H     -0.06165196     -0.06837301     -0.34860423     -0.01530822     -0.01837224     -0.00102868
 H      0.12845251     -0.06018201      0.40707170      0.03204536     -0.01383770      0.01567792
    2
 MD step:        1700 time   4.1121033550585002     
 H     -0.06348391     -0.07058973     -0.34865598     -0.01497360     -0.01830531      0.00021677
 H      0.13230872     -0.06186089      0.40889519      0.03171073     -0.01390463      0.01443248
    2
 MD step:        1750 time   4.2330475713837501     
 H     -0.06527242     -0.07280409     -0.34854934     -0.01461224     -0.01834380      0.00142583
 H      0.13612149     -0.06354214      0.41056030      0.03134937     -0.01386615      0.01322342
    2
 MD step:        1800 time   4.3539917877090000     
 H     -0.06701903     -0.07503618     -0.34832746     -0.01425793     -0.01855404      0.00234077
 H      0.13989236     -0.06520566      0.41211016      0.03099506     -0.01365590      0.01230848
    2
 MD step:        1850 time   4.4749360040342498     
 H     -0.06871674     -0.07728225     -0.34795082     -0.01381136     -0.01859044      0.00390620
 H      0.14361433     -0.06685519      0.41350526      0.03054849     -0.01361951      0.01074305
    2
 MD step:        1900 time   4.5958802203594997     
 H     -0.07036007     -0.07953710     -0.34738509     -0.01336556     -0.01866996      0.00545411
 H      0.14728192     -0.06849595      0.41471127      0.03010269     -0.01353998      0.00919514
    2
 MD step:        1950 time   4.7168244366847505     
 H     -0.07194961     -0.08179073     -0.34663870     -0.01291223     -0.01860654      0.00686362
 H      0.15089572     -0.07013793      0.41573662      0.02964936     -0.01360341      0.00778563
    2
 MD step:        2000 time   4.8377686530100004     
 H     -0.07348009     -0.08404137     -0.34571268     -0.01238581     -0.01861745      0.00849590
 H      0.15445046     -0.07178290      0.41658235      0.02912294     -0.01359250      0.00615335
    2
 MD step:        2050 time   4.9587128693352502     
 H     -0.07494772     -0.08630325     -0.34460420     -0.01189185     -0.01882997      0.00976388
 H      0.15794234     -0.07341662      0.41724560      0.02862898     -0.01337997      0.00488537
    2
 MD step:        2100 time   5.0796570856605001     
 H     -0.07635525     -0.08858915     -0.34333464     -0.01136625     -0.01890223      0.01135230
 H      0.16137413     -0.07502633      0.41774779      0.02810338     -0.01330772      0.00329695
    2
 MD step:        2150 time   5.2006013019857500     
 H     -0.07769496     -0.09087203     -0.34184972     -0.01078629     -0.01886871      0.01320264
 H      0.16473811     -0.07663906      0.41803460      0.02752342     -0.01334124      0.00144661
    2
 MD step:        2200 time   5.3215455183109999     
 H     -0.07896556     -0.09315251     -0.34014936     -0.01023763     -0.01884330      0.01480084
 H      0.16803296     -0.07825418      0.41810599      0.02697476     -0.01336665     -0.00015159
    2
 MD step:        2250 time   5.4424897346362506     
 H     -0.08017141     -0.09543594     -0.33828410     -0.00968945     -0.01892261      0.01611579
 H      0.17126307     -0.07986636      0.41801247      0.02642658     -0.01328733     -0.00146655
    2
 MD step:        2300 time   5.5634339509615005     
 H     -0.08130612     -0.09772742     -0.33623217     -0.00908359     -0.01899733      0.01776278
 H      0.17442204     -0.08147048      0.41773228      0.02582072     -0.01321261     -0.00311354
    2
 MD step:        2350 time   5.6843781672867504     
 H     -0.08237132     -0.10003778     -0.33399960     -0.00853494     -0.01917187      0.01918822
 H      0.17751150     -0.08305573      0.41727145      0.02527207     -0.01303808     -0.00453898
    2
 MD step:        2400 time   5.8053223836120003     
 H     -0.08336937     -0.10235090     -0.33158117     -0.00796233     -0.01906793      0.02080430
 H      0.18053381     -0.08463822      0.41662477      0.02469946     -0.01314202     -0.00615505
    2
 MD step:        2450 time   5.9262665999372501     
 H     -0.08429612     -0.10465386     -0.32896509     -0.00736512     -0.01902348      0.02243861
 H      0.18348482     -0.08623086      0.41578043      0.02410225     -0.01318646     -0.00778936
    2
 MD step:        2500 time   6.0472108162625000     
 H     -0.08515546     -0.10695975     -0.32618450     -0.00685741     -0.01915192      0.02344558
 H      0.18636842     -0.08782058      0.41477158      0.02359454     -0.01305802     -0.00879634
    2
 MD step:        2550 time   6.1681550325877499     
 H     -0.08595316     -0.10928372     -0.32327870     -0.00631602     -0.01923315      0.02472723
 H      0.18919038     -0.08939221      0.41363752      0.02305315     -0.01297680     -0.01007799
    2
 MD step:        2600 time   6.2890992489130007     
 H     -0.08668417     -0.11161338     -0.32020480     -0.00578583     -0.01931752      0.02606010
 H      0.19194565     -0.09095817      0.41233537      0.02252296     -0.01289242     -0.01141086
    2
 MD step:        2650 time   6.4100434652382505     
 H     -0.08735575     -0.11394992     -0.31698062     -0.00532724     -0.01928039      0.02721120
 H      0.19464149     -0.09251723      0.41088292      0.02206437     -0.01292956     -0.01256195
    2
 MD step:        2700 time   6.5309876815635004     
 H     -0.08797239     -0.11627816     -0.31362923     -0.00486084     -0.01923558      0.02825177
 H      0.19728239     -0.09408460      0.40930327      0.02159797     -0.01297436     -0.01360252
    2
 MD step:        2750 time   6.6519318978887503     
 H     -0.08853301     -0.11860664     -0.31015322     -0.00444047     -0.01931984      0.02907119
 H      0.19986727     -0.09565173      0.40759901      0.02117760     -0.01289011     -0.01442195
    2
 MD step:        2800 time   6.7728761142140002     
 H     -0.08905022     -0.12095754     -0.30661071     -0.00410574     -0.01950522      0.02960952
 H      0.20240874     -0.09719643      0.40582824      0.02084287     -0.01270473     -0.01496028
    2
 MD step:        2850 time   6.8938203305392500     
 H     -0.08952418     -0.12331434     -0.30297424     -0.00374333     -0.01948762      0.03048840
 H      0.20490695     -0.09873524      0.40396352      0.02048047     -0.01272232     -0.01583915
    2
 MD step:        2900 time   7.0147645468644999     
 H     -0.08995927     -0.12567327     -0.29924447     -0.00347473     -0.01949415      0.03111159
 H      0.20736630     -0.10027192      0.40200548      0.02021186     -0.01271580     -0.01646234
    2
 MD step:        2950 time   7.1357087631897507     
 H     -0.09036806     -0.12803006     -0.29547000     -0.00328341     -0.01949790      0.03130976
 H      0.20979935     -0.10181073      0.40000276      0.02002054     -0.01271204     -0.01666051
    2
 MD step:        3000 time   7.2566529795150005     
 H     -0.09075215     -0.13039026     -0.29166033     -0.00309390     -0.01956436      0.03158854
 H      0.21220770     -0.10334614      0.39796483      0.01983103     -0.01264559     -0.01693930
    2
 MD step:        3050 time   7.3775971958402504     
 H     -0.09112359     -0.13277247     -0.28785469     -0.00305663     -0.01979711      0.03138561
 H      0.21460340     -0.10485953      0.39593093      0.01979376     -0.01241284     -0.01673636
    2
 MD step:        3100 time   7.4985414121655003     
 H     -0.09148990     -0.13516490     -0.28405049     -0.00300781     -0.01976944      0.03150661
 H      0.21699396     -0.10636271      0.39389847      0.01974494     -0.01244050     -0.01685737
    2
 MD step:        3150 time   7.6194856284907502     
 H     -0.09185488     -0.13755845     -0.28024165     -0.00305655     -0.01979733      0.03139393
 H      0.21938321     -0.10786476      0.39186137      0.01979368     -0.01241262     -0.01674468
    2
 MD step:        3200 time   7.7404298448160000     
 H     -0.09223468     -0.13995536     -0.27648320     -0.00322391     -0.01985700      0.03076023
 H      0.22178727     -0.10936347      0.38987466      0.01996104     -0.01235294     -0.01611099
    2
 MD step:        3250 time   7.8613740611412499     
 H     -0.09263309     -0.14236100     -0.27278733     -0.00339423     -0.01995814      0.03025682
 H      0.22420993     -0.11085343      0.38795053      0.02013136     -0.01225180     -0.01560757
    2
 MD step:        3300 time   7.9823182774665007     
 H     -0.09306347     -0.14479243     -0.26918796     -0.00372823     -0.02020453      0.02932291
 H      0.22666458     -0.11231761      0.38612291      0.02046536     -0.01200541     -0.01467367
    2
 MD step:        3350 time   8.1032624937917497     
 H     -0.09353344     -0.14723539     -0.26567899     -0.00405487     -0.02021240      0.02867673
 H      0.22915880     -0.11377025      0.38438568      0.02079200     -0.01199755     -0.01402748
    2
 MD step:        3400 time   8.2242067101170004     
 H     -0.09404850     -0.14968452     -0.26225952     -0.00449506     -0.02027371      0.02776323
 H      0.23169813     -0.11521673      0.38273794      0.02123219     -0.01193624     -0.01311399
    2
 MD step:        3450 time   8.3451509264422494     
 H     -0.09462466     -0.15214236     -0.25898275     -0.00502006     -0.02037475      0.02649226
 H      0.23429854     -0.11665450      0.38123292      0.02175719     -0.01183520     -0.01184301
    2
 MD step:        3500 time   8.4660951427675002     
 H     -0.09526303     -0.15461438     -0.25584661     -0.00557956     -0.02056334      0.02521565
 H      0.23696117     -0.11807809      0.37986852      0.02231669     -0.01164661     -0.01056640
    2
 MD step:        3550 time   8.5870393590927510     
 H     -0.09597896     -0.15711865     -0.25288992     -0.00624424     -0.02077285      0.02379683
 H      0.23970136     -0.11946942      0.37868357      0.02298137     -0.01143710     -0.00914758
    2
 MD step:        3600 time   8.7079835754179999     
 H     -0.09677250     -0.15963451     -0.25008253     -0.00689161     -0.02086440      0.02260337
 H      0.24251916     -0.12084917      0.37764793      0.02362874     -0.01134555     -0.00795413
    2
 MD step:        3650 time   8.8289277917432507     
 H     -0.09765116     -0.16216339     -0.24743451     -0.00765734     -0.02094810      0.02108916
 H      0.24542208     -0.12221589      0.37677164      0.02439447     -0.01126185     -0.00643991
    2
 MD step:        3700 time   8.9498720080684997     
 H     -0.09862266     -0.16470412     -0.24497703     -0.00838703     -0.02106103      0.01964027
 H      0.24841784     -0.12357077      0.37608591      0.02512417     -0.01114891     -0.00499102
    2
 MD step:        3750 time   9.0708162243937505     
 H     -0.09968607     -0.16726708     -0.24270532     -0.00922310     -0.02136732      0.01784225
 H      0.25150551     -0.12490341      0.37558594      0.02596023     -0.01084262     -0.00319300
    2
 MD step:        3800 time   9.1917604407189994     
 H     -0.10084983     -0.16986173     -0.24063730     -0.00999946     -0.02149479      0.01644306
 H      0.25469353     -0.12620437      0.37528966      0.02673659     -0.01071515     -0.00179382
    2
 MD step:        3850 time   9.3127046570442502     
 H     -0.10210633     -0.17247204     -0.23873068     -0.01078874     -0.02166433      0.01508049
 H      0.25797429     -0.12748967      0.37515478      0.02752587     -0.01054561     -0.00043124
    2
 MD step:        3900 time   9.4336488733695010     
 H     -0.10346132     -0.17509620     -0.23699953     -0.01160585     -0.02174124      0.01354412
 H      0.26135353     -0.12876112      0.37519537      0.02834298     -0.01046870      0.00110512
    2
 MD step:        3950 time   9.5545930896947500     
 H     -0.10490769     -0.17773230     -0.23543681     -0.01232352     -0.02187475      0.01224484
 H      0.26482416     -0.13002062      0.37540439      0.02906065     -0.01033520      0.00240440
    2
 MD step:        4000 time   9.6755373060200007     
 H     -0.10644714     -0.18039842     -0.23405947     -0.01311375     -0.02218776      0.01062574
 H      0.26838787     -0.13125011      0.37579880      0.02985088     -0.01002219      0.00402351
    2
 MD step:        4050 time   9.7964815223452497     
 H     -0.10807120     -0.18308728     -0.23283611     -0.01374152     -0.02230169      0.00959643
 H      0.27203619     -0.13245685      0.37634718      0.03047866     -0.00990825      0.00505282
    2
 MD step:        4100 time   9.9174257386705005     
 H     -0.10977182     -0.18579550     -0.23173859     -0.01438216     -0.02243687      0.00855042
 H      0.27576107     -0.13364424      0.37702140      0.03111929     -0.00977307      0.00609882
    2
 MD step:        4150 time   10.038369954995749     
 H     -0.11154592     -0.18851137     -0.23076759     -0.01492155     -0.02248636      0.00758404
 H      0.27955943     -0.13482398      0.37782214      0.03165868     -0.00972359      0.00706521
    2
 MD step:        4200 time   10.159314171321000     
 H     -0.11337770     -0.19123742     -0.22989874     -0.01539521     -0.02264396      0.00665538
 H      0.28341547     -0.13599354      0.37872504      0.03213234     -0.00956599      0.00799386
    2
 MD step:        4250 time   10.280258387646251     
 H     -0.11526799     -0.19399285     -0.22915715     -0.01581544     -0.02285928      0.00577785
 H      0.28733002     -0.13713371      0.37975519      0.03255257     -0.00935067      0.00887140
    2
 MD step:        4300 time   10.401202603971500     
 H     -0.11719657     -0.19676190     -0.22848327     -0.01607838     -0.02297068      0.00534638
 H      0.29128286     -0.13826026      0.38085305      0.03281551     -0.00923926      0.00930287
    2
 MD step:        4350 time   10.522146820296751     
 H     -0.11915621     -0.19954551     -0.22786022     -0.01631588     -0.02301488      0.00495469
 H      0.29526675     -0.13937227      0.38200173      0.03305301     -0.00919507      0.00969456
    2
 MD step:        4400 time   10.643091036622000     
 H     -0.12113684     -0.20232860     -0.22727998     -0.01639751     -0.02301399      0.00473137
 H      0.29927164     -0.14048478      0.38319325      0.03313464     -0.00919596      0.00991788
    2
 MD step:        4450 time   10.764035252947250     
 H     -0.12312072     -0.20511649     -0.22671858     -0.01642865     -0.02314337      0.00443514
 H      0.30327979     -0.14159250      0.38440358      0.03316578     -0.00906657      0.01021411
    2
 MD step:        4500 time   10.884979469272501     
 H     -0.12510692     -0.20792762     -0.22619896     -0.01636571     -0.02327615      0.00432167
 H      0.30729025     -0.14267697      0.38565570      0.03310285     -0.00893379      0.01032758
    2
 MD step:        4550 time   11.005923685597750     
 H     -0.12707272     -0.21074260     -0.22565800     -0.01613942     -0.02330759      0.00461509
 H      0.31128030     -0.14375760      0.38688648      0.03287655     -0.00890235      0.01003415
    2
 MD step:        4600 time   11.126867901923001     
 H     -0.12901014     -0.21356194     -0.22508036     -0.01589236     -0.02327767      0.00491526
 H      0.31524199     -0.14483386      0.38808058      0.03262949     -0.00893227      0.00973398
    2
 MD step:        4650 time   11.247812118248250     
 H     -0.13091092     -0.21637343     -0.22446793     -0.01550053     -0.02321921      0.00529812
 H      0.31916703     -0.14591798      0.38923990      0.03223766     -0.00899074      0.00935113
    2
 MD step:        4700 time   11.368756334573501     
 H     -0.13275572     -0.21918089     -0.22379455     -0.01502712     -0.02325944      0.00572958
 H      0.32303608     -0.14700613      0.39033826      0.03176425     -0.00895051      0.00891967
    2
 MD step:        4750 time   11.489700550898750     
 H     -0.13454487     -0.22200431     -0.22308334     -0.01452373     -0.02336926      0.00616140
 H      0.32684949     -0.14807832      0.39139879      0.03126086     -0.00884068      0.00848785
    2
 MD step:        4800 time   11.610644767224001     
 H     -0.13626033     -0.22482290     -0.22228270     -0.01383601     -0.02326026      0.00708056
 H      0.33058921     -0.14915534      0.39236990      0.03057314     -0.00894969      0.00756869
    2
 MD step:        4850 time   11.731588983549251     
 H     -0.13789041     -0.22763202     -0.22136877     -0.01312804     -0.02317097      0.00799450
 H      0.33424355     -0.15024182      0.39322770      0.02986517     -0.00903897      0.00665475
    2
 MD step:        4900 time   11.852533199874500     
 H     -0.13943460     -0.23042865     -0.22036155     -0.01238231     -0.02308957      0.00869119
 H      0.33781200     -0.15134080      0.39399222      0.02911944     -0.00912037      0.00595806
    2
 MD step:        4950 time   11.973477416199751     
 H     -0.14087720     -0.23321513     -0.21924639     -0.01147238     -0.02300713      0.00973151
 H      0.34127885     -0.15244992      0.39464881      0.02820951     -0.00920281      0.00491774
    2
 MD step:        5000 time   12.094421632525000     
 H     -0.14221327     -0.23600424     -0.21802209     -0.01061935     -0.02310538      0.01054747
 H      0.34463918     -0.15355642      0.39519625      0.02735648     -0.00910457      0.00410177
    2
 MD step:        5050 time   12.215365848850251     
 H     -0.14344021     -0.23878885     -0.21667508     -0.00964274     -0.02290944      0.01176812
 H      0.34789039     -0.15466742      0.39562099      0.02637987     -0.00930050      0.00288113
    2
 MD step:        5100 time   12.336310065175500     
 H     -0.14454265     -0.24154848     -0.21517204     -0.00858235     -0.02272899      0.01309640
 H      0.35101709     -0.15580339      0.39588968      0.02531948     -0.00948095      0.00155285
    2
 MD step:        5150 time   12.457254281500751     
 H     -0.14552042     -0.24428960     -0.21352640     -0.00759379     -0.02263549      0.01402800
 H      0.35401911     -0.15695788      0.39601579      0.02433092     -0.00957445      0.00062125
    2
 MD step:        5200 time   12.578198497826001     
 H     -0.14637486     -0.24702441     -0.21176908     -0.00649738     -0.02255099      0.01515054
 H      0.35689781     -0.15811868      0.39603021      0.02323451     -0.00965896     -0.00050130
    2
 MD step:        5250 time   12.699142714151250     
 H     -0.14709114     -0.24974575     -0.20985930     -0.00536567     -0.02249252      0.01638293
 H      0.35963836     -0.15929295      0.39589217      0.02210280     -0.00971742     -0.00173369
    2
 MD step:        5300 time   12.820086930476501     
 H     -0.14767455     -0.25246164     -0.20780361     -0.00427826     -0.02235931      0.01763324
 H      0.36224602     -0.16047266      0.39560822      0.02101539     -0.00985064     -0.00298400
    2
 MD step:        5350 time   12.941031146801750     
 H     -0.14812272     -0.25514958     -0.20559455     -0.00311940     -0.02210599      0.01891380
 H      0.36471845     -0.16168033      0.39517090      0.01985654     -0.01010395     -0.00426455
    2
 MD step:        5400 time   13.061975363127001     
 H     -0.14842725     -0.25781095     -0.20322559     -0.00194445     -0.02193487      0.02016604
 H      0.36704724     -0.16291456      0.39457368      0.01868158     -0.01027507     -0.00551680
    2
 MD step:        5450 time   13.182919579452250     
 H     -0.14859844     -0.26046608     -0.20073746     -0.00088247     -0.02196600      0.02101903
 H      0.36924269     -0.16415504      0.39385730      0.01761960     -0.01024394     -0.00636978
    2
 MD step:        5500 time   13.303863795777501     
 H     -0.14863455     -0.26311196     -0.19811729      0.00029462     -0.02177226      0.02233608
 H      0.37130305     -0.16540477      0.39300887      0.01644251     -0.01043768     -0.00768683
    2
 MD step:        5550 time   13.424808012102751     
 H     -0.14853015     -0.26573782     -0.19533916      0.00141595     -0.02164402      0.02359750
 H      0.37322292     -0.16667451      0.39200248      0.01532119     -0.01056592     -0.00894826
    2
 MD step:        5600 time   13.545752228428000     
 H     -0.14829654     -0.26834233     -0.19242137      0.00244569     -0.02143303      0.02459360
 H      0.37501356     -0.16796561      0.39085643      0.01429144     -0.01077691     -0.00994435
    2
 MD step:        5650 time   13.666696444753251     
 H     -0.14793568     -0.27092448     -0.18938513      0.00353897     -0.02125904      0.02567296
 H      0.37667696     -0.16927907      0.38959194      0.01319816     -0.01095091     -0.01102371
    2
 MD step:        5700 time   13.787640661078500     
 H     -0.14744663     -0.27349254     -0.18622642      0.00451330     -0.02126303      0.02647212
 H      0.37821217     -0.17060662      0.38820496      0.01222383     -0.01094692     -0.01182287
    2
 MD step:        5750 time   13.908584877403751     
 H     -0.14684609     -0.27606345     -0.18297526      0.00543384     -0.02117890      0.02737260
 H      0.37963590     -0.17193131      0.38672555      0.01130329     -0.01103105     -0.01272335
    2
 MD step:        5800 time   14.029529093729000     
 H     -0.14613138     -0.27861130     -0.17960186      0.00637404     -0.02097919      0.02840087