    2
 MD step:           0 time   0.0000000000000000     
 H      0.00000000      0.00000000     -0.37000000     -0.01184218      0.01013386      0.01006825
 H      0.00000000      0.00000000      0.37000000      0.01371296      0.01782472      0.03063861
    2
 MD step:          50 time  0.12094421632525000     
 H     -0.00143225      0.00122560     -0.36878710     -0.01184228      0.01013328      0.01000572
 H      0.00165851      0.00215583      0.37371036      0.01371306      0.01782530      0.03070114
    2
 MD step:         100 time  0.24188843265050000     
 H     -0.00286449      0.00245125     -0.36757539     -0.01184197      0.01013479      0.01004971
 H      0.00331701      0.00431160      0.37742191      0.01371275      0.01782379      0.03065715
    2
 MD step:         150 time  0.36283264897575002     
 H     -0.00429663      0.00367683     -0.36635191     -0.01184038      0.01013195      0.01019982
 H      0.00497541      0.00646746      0.38112169      0.01371116      0.01782663      0.03050704
    2
 MD step:         200 time  0.48377686530100000     
 H     -0.00572846      0.00490239     -0.36510400     -0.01183668      0.01013450      0.01045346
 H      0.00663350      0.00862333      0.38479704      0.01370746      0.01782408      0.03025340
    2
 MD step:         250 time  0.60472108162625005     
 H     -0.00715967      0.00612787     -0.36381932     -0.01183010      0.01013092      0.01080695
 H      0.00829097      0.01077927      0.38843562      0.01370088      0.01782767      0.02989991
    2
 MD step:         300 time  0.72566529795150003     
 H     -0.00858988      0.00735335     -0.36248608     -0.01181994      0.01013455      0.01125586
 H      0.00994744      0.01293522      0.39202563      0.01369073      0.01782403      0.02945101
    2
 MD step:         350 time  0.84660951427675002     
 H     -0.01001861      0.00857907     -0.36109303     -0.01180559      0.01013492      0.01179488
 H      0.01160243      0.01509093      0.39555584      0.01367637      0.01782366      0.02891199
    2
 MD step:         400 time  0.96755373060200001     
 H     -0.01144532      0.00980518     -0.35962964     -0.01178651      0.01014121      0.01241809
 H      0.01325541      0.01724625      0.39901571      0.01365729      0.01781737      0.02828878
    2
 MD step:         450 time   1.0884979469272500     
 H     -0.01286942      0.01103211     -0.35808610     -0.01176228      0.01014839      0.01311900
 H      0.01490576      0.01940074      0.40239544      0.01363306      0.01781019      0.02758786
    2
 MD step:         500 time   1.2094421632525001     
 H     -0.01429026      0.01225997     -0.35645346     -0.01173255      0.01015579      0.01389050
 H      0.01655286      0.02155432      0.40568605      0.01360334      0.01780279      0.02681636
    2
 MD step:         550 time   1.3303863795777500     
 H     -0.01570716      0.01348884     -0.35472359     -0.01169711      0.01016623      0.01472541
 H      0.01819602      0.02370687      0.40887945      0.01356789      0.01779235      0.02598146
    2
 MD step:         600 time   1.4513305959030001     
 H     -0.01711942      0.01471881     -0.35288932     -0.01165581      0.01017193      0.01561576
 H      0.01983454      0.02585834      0.41196844      0.01352659      0.01778665      0.02509110
    2
 MD step:         650 time   1.5722748122282502     
 H     -0.01852633      0.01594957     -0.35094439     -0.01160864      0.01018212      0.01655394
 H      0.02146771      0.02800900      0.41494676      0.01347942      0.01777646      0.02415292
    2
 MD step:         700 time   1.6932190285535000     
 H     -0.01992718      0.01718156     -0.34888354     -0.01155568      0.01018959      0.01753137
 H      0.02309483      0.03015844      0.41780917      0.01342646      0.01776899      0.02317549
    2
 MD step:         750 time   1.8141632448787501     
 H     -0.02132129      0.01841461     -0.34670249     -0.01149711      0.01020285      0.01854005
 H      0.02471519      0.03230682      0.42055138      0.01336789      0.01775573      0.02216681
    2
 MD step:         800 time   1.9351074612040000     
 H     -0.02270799      0.01964958     -0.34439801     -0.01143324      0.01021887      0.01957112
 H      0.02632815      0.03445328      0.42317016      0.01330402      0.01773971      0.02113574
    2
 MD step:         850 time   2.0560516775292501     
 H     -0.02408666      0.02088662     -0.34196789     -0.01136444      0.01023864      0.02061628
 H      0.02793308      0.03659766      0.42566330      0.01323522      0.01771994      0.02009058
    2
 MD step:         900 time   2.1769958938545000     
 H     -0.02545674      0.02212626     -0.33941097     -0.01129122      0.01026094      0.02166661
 H      0.02952942      0.03873945      0.42802964      0.01316200      0.01769764      0.01904025
    2
 MD step:         950 time   2.2979401101797499     
 H     -0.02681772      0.02336862     -0.33672712     -0.01121417      0.01028240      0.02271366
 H      0.03111666      0.04087852      0.43026905      0.01308495      0.01767619      0.01799320
    2
 MD step:        1000 time   2.4188843265050002     
 H     -0.02816919      0.02461328     -0.33391729     -0.01113400      0.01030066      0.02374852
 H      0.03269439      0.04301529      0.43238248      0.01300478      0.01765792      0.01695835
    2
 MD step:        1050 time   2.5398285428302501     
 H     -0.02951081      0.02586026     -0.33098345     -0.01105146      0.01031815      0.02476288
 H      0.03426227      0.04514974      0.43437190      0.01292224      0.01764043      0.01594398
    2
 MD step:        1100 time   2.6607727591554999     
 H     -0.03084235      0.02710884     -0.32792862     -0.01096747      0.01033039      0.02574790
 H      0.03582007      0.04728259      0.43624033      0.01283825      0.01762819      0.01495897
    2
 MD step:        1150 time   2.7817169754807503     
 H     -0.03216369      0.02835936     -0.32475683     -0.01088295      0.01034810      0.02669562
 H      0.03736768      0.04941350      0.43799180      0.01275373      0.01761048      0.01401124
    2
 MD step:        1200 time   2.9026611918060001     
 H     -0.03347483      0.02961178     -0.32147312     -0.01079898      0.01036409      0.02759743
 H      0.03890508      0.05154251      0.43963134      0.01266976      0.01759449      0.01310943
    2
 MD step:        1250 time   3.0236054081312500     
 H     -0.03477591      0.03086667     -0.31808349     -0.01071665      0.01038752      0.02844580
 H      0.04043241      0.05366904      0.44116497      0.01258743      0.01757106      0.01226106
    2
 MD step:        1300 time   3.1445496244565003     
 H     -0.03606718      0.03212437     -0.31459488     -0.01063715      0.01041062      0.02923273
 H      0.04194994      0.05579278      0.44259963      0.01250794      0.01754796      0.01147413
    2
 MD step:        1350 time   3.2654938407817502     
 H     -0.03734908      0.03338481     -0.31101519     -0.01056173      0.01043215      0.02995105
 H      0.04345810      0.05791376      0.44394319      0.01243251      0.01752643      0.01075581
    2
 MD step:        1400 time   3.3864380571070001     
 H     -0.03862216      0.03464772     -0.30735312     -0.01049168      0.01045093      0.03059373
 H      0.04495744      0.06003228      0.44520438      0.01236246      0.01750765      0.01011313
    2
 MD step:        1450 time   3.5073822734322500     
 H     -0.03988716      0.03591221     -0.30361824     -0.01042834      0.01045809      0.03115406
 H      0.04644871      0.06214922      0.44639276      0.01229912      0.01750049      0.00955280
    2
 MD step:        1500 time   3.6283264897575003     
 H     -0.04114498      0.03717747     -0.29982086     -0.01037304      0.01046423      0.03162641
 H      0.04793278      0.06426538      0.44751864      0.01224382      0.01749435      0.00908045
    2
 MD step:        1550 time   3.7492707060827501     
 H     -0.04239666      0.03844284     -0.29597196     -0.01032716      0.01045986      0.03200506
 H      0.04941072      0.06638145      0.44859300      0.01219794      0.01749872      0.00870181
    2
 MD step:        1600 time   3.8702149224080000     
 H     -0.04364343      0.03970793     -0.29208314     -0.01029198      0.01046076      0.03228592
 H      0.05088375      0.06849779      0.44962744      0.01216276      0.01749782      0.00842094
    2
 MD step:        1650 time   3.9911591387332503     
 H     -0.04488666      0.04097294     -0.28816648     -0.01026884      0.01045820      0.03246486
 H      0.05235324      0.07061421      0.45063404      0.01213962      0.01750038      0.00824200
    2
 MD step:        1700 time   4.1121033550585002     
 H     -0.04612787      0.04223790     -0.28423447     -0.01025890      0.01045988      0.03253947
 H      0.05382072      0.07273068      0.45162529      0.01212968      0.01749871      0.00816739
    2
 MD step:        1750 time   4.2330475713837501     
 H     -0.04736874      0.04350290     -0.28029985     -0.01026331      0.01045836      0.03250779
 H      0.05528785      0.07484710      0.45261393      0.01213409      0.01750022      0.00819907
    2
 MD step:        1800 time   4.3539917877090000     
 H     -0.04861107      0.04476732     -0.27637552     -0.01028306      0.01044899      0.03236917
 H      0.05675643      0.07696411      0.45361286      0.01215384      0.01750959      0.00833769
    2
 MD step:        1850 time   4.4749360040342498     
 H     -0.04985675      0.04603016     -0.27247441     -0.01031899      0.01043233      0.03212416
 H      0.05822837      0.07908270      0.45463500      0.01218977      0.01752625      0.00858270
    2
 MD step:        1900 time   4.5958802203594997     
 H     -0.05110779      0.04729000     -0.26860930     -0.01037182      0.01039906      0.03177410
 H      0.05970568      0.08120429      0.45569315      0.01224260      0.01755952      0.00893276
    2
 MD step:        1950 time   4.7168244366847505     
 H     -0.05236627      0.04854555     -0.26479271     -0.01044194      0.01036216      0.03132246
 H      0.06119041      0.08333016      0.45679983      0.01231272      0.01759642      0.00938440
    2
 MD step:        2000 time   4.8377686530100004     
 H     -0.05363429      0.04979589     -0.26103670     -0.01052964      0.01031392      0.03077310
 H      0.06268469      0.08546126      0.45796708      0.01240042      0.01764466      0.00993376
    2
 MD step:        2050 time   4.9587128693352502     
 H     -0.05491397      0.05104070     -0.25735273     -0.01063475      0.01027061      0.03013235
 H      0.06419063      0.08759787      0.45920637      0.01250553      0.01768797      0.01057451
    2
 MD step:        2100 time   5.0796570856605001     
 H     -0.05620740      0.05228003     -0.25375146     -0.01075701      0.01022449      0.02940672
 H      0.06571033      0.08973997      0.46052836      0.01262779      0.01773409      0.01130014
    2
 MD step:        2150 time   5.2006013019857500     
 H     -0.05751663      0.05351405     -0.25024265     -0.01089568      0.01018125      0.02860501
 H      0.06724581      0.09188738      0.46194280      0.01276646      0.01777733      0.01210185
    2
 MD step:        2200 time   5.3215455183109999     
 H     -0.05884357      0.05474258     -0.24683495     -0.01104986      0.01013331      0.02773627
 H      0.06879901      0.09404028      0.46345836      0.01292064      0.01782527      0.01297059
    2
 MD step:        2250 time   5.4424897346362506     
 H     -0.06019003      0.05596474     -0.24353583     -0.01121819      0.01007595      0.02681131
 H      0.07037173      0.09619955      0.46508250      0.01308897      0.01788263      0.01389555
    2
 MD step:        2300 time   5.5634339509615005     
 H     -0.06155763      0.05717949     -0.24035142     -0.01139914      0.01000849      0.02584132
 H      0.07196559      0.09836622      0.46682135      0.01326992      0.01795010      0.01486554
    2
 MD step:        2350 time   5.6843781672867504     
 H     -0.06294778      0.05838511     -0.23728643     -0.01159076      0.00992860      0.02483869
 H      0.07358200      0.10054204      0.46867962      0.01346154      0.01802998      0.01586817
    2
 MD step:        2400 time   5.8053223836120003     
 H     -0.06436164      0.05958095     -0.23434404     -0.01179090      0.00984387      0.02381595
 H      0.07522213      0.10272762      0.47066049      0.01366168      0.01811471      0.01689091
    2
 MD step:        2450 time   5.9262665999372501     
 H     -0.06580010      0.06076624     -0.23152590     -0.01199710      0.00975932      0.02278644
 H      0.07688685      0.10492377      0.47276560      0.01386789      0.01819926      0.01792042
    2
 MD step:        2500 time   6.0472108162625000     
 H     -0.06726374      0.06194181     -0.22883202     -0.01220679      0.00968041      0.02176306
 H      0.07857675      0.10712962      0.47499499      0.01407757      0.01827817      0.01894380
    2
 MD step:        2550 time   6.1681550325877499     
 H     -0.06875281      0.06310822     -0.22626088     -0.01241713      0.00961003      0.02075910
 H      0.08029208      0.10934464      0.47734710      0.01428791      0.01834855      0.01994776
    2
 MD step:        2600 time   6.2890992489130007     
 H     -0.07026722      0.06426654     -0.22380936     -0.01262530      0.00954493      0.01978694
 H      0.08203274      0.11156775      0.47981884      0.01449608      0.01841366      0.02091992
    2
 MD step:        2650 time   6.4100434652382505     
 H     -0.07180652      0.06541701     -0.22147287     -0.01282834      0.00947911      0.01885870
 H      0.08379831      0.11379870      0.48240562      0.01469912      0.01847947      0.02184816
    2
 MD step:        2700 time   6.5309876815635004     
 H     -0.07336992      0.06655936     -0.21924543     -0.01302332      0.00941099      0.01798572
 H      0.08558797      0.11603779      0.48510143      0.01489410      0.01854759      0.02272114
    2
 MD step:        2750 time   6.6519318978887503     
 H     -0.07495627      0.06769290     -0.21711970     -0.01320742      0.00933221      0.01717807
 H      0.08740058      0.11828567      0.48789897      0.01507820      0.01862637      0.02352879
    2
 MD step:        2800 time   6.7728761142140002     
 H     -0.07656409      0.06881691     -0.21508721     -0.01337775      0.00925544      0.01644563
 H      0.08923465      0.12054309      0.49078974      0.01524853      0.01870315      0.02426123
    2
 MD step:        2850 time   6.8938203305392500     
 H     -0.07819154      0.06993144     -0.21313837     -0.01353180      0.00917610      0.01579595
 H      0.09108837      0.12280999      0.49376415      0.01540258      0.01878248      0.02491091
    2
 MD step:        2900 time   7.0147645468644999     
 H     -0.07983651      0.07103733     -0.21126270     -0.01366695      0.00911396      0.01523676
 H      0.09295960      0.12508553      0.49681174      0.01553773      0.01884462      0.02547011
    2
 MD step:        2950 time   7.1357087631897507     
 H     -0.08149657      0.07213636     -0.20944893     -0.01378116      0.00906330      0.01477293
 H      0.09484592      0.12736792      0.49992124      0.01565195      0.01889528      0.02593393
    2
 MD step:        3000 time   7.2566529795150005     
 H     -0.08316908      0.07323050     -0.20768525     -0.01387235      0.00903208      0.01440927
 H      0.09674469      0.12965522      0.50308082      0.01574313      0.01892650      0.02629759
    2
 MD step:        3050 time   7.3775971958402504     
 H     -0.08485115      0.07432151     -0.20595937     -0.01393899      0.00901077      0.01414818
 H      0.09865301      0.13194564      0.50627819      0.01580977      0.01894781      0.02655868
    2
 MD step:        3100 time   7.4985414121655003     
 H     -0.08653972      0.07541017     -0.20425878     -0.01397974      0.00899208      0.01399123
 H      0.10056785      0.13423841      0.50950086      0.01585053      0.01896650      0.02671563
    2
 MD step:        3150 time   7.6194856284907502     
 H     -0.08823160      0.07649669     -0.20257083     -0.01399358      0.00897425      0.01393877
 H      0.10248599      0.13653331      0.51273617      0.01586436      0.01898433      0.02676809
    2
 MD step:        3200 time   7.7404298448160000     
 H     -0.08992350      0.07758052     -0.20088299     -0.01397986      0.00894888      0.01398962
 H      0.10440414      0.13883091      0.51597159      0.01585065      0.01900970      0.02671724
    2
 MD step:        3250 time   7.8613740611412499     
 H     -0.09161203      0.07866174     -0.19918278     -0.01393801      0.00893113      0.01414264
 H      0.10631894      0.14113112      0.51919464      0.01580879      0.01902745      0.02656422
    2
 MD step:        3300 time   7.9823182774665007     
 H     -0.09329381      0.07974091     -0.19745808     -0.01386805      0.00891779      0.01439438
 H      0.10822698      0.14343337      0.52239319      0.01573883      0.01904079      0.02631248
    2
 MD step:        3350 time   8.1032624937917497     
 H     -0.09496542      0.08081992     -0.19569708     -0.01376995      0.00892812      0.01474195
 H      0.11012484      0.14573580      0.52555545      0.01564073      0.01903046      0.02596491
    2
 MD step:        3400 time   8.2242067101170004     
 H     -0.09662349      0.08190113     -0.19388852     -0.01364436      0.00895518      0.01518013
 H      0.11200918      0.14803602      0.52867016      0.01551514      0.01900340      0.02552673
    2
 MD step:        3450 time   8.3451509264422494     
 H     -0.09826474      0.08298693     -0.19202172     -0.01349190      0.00900230      0.01570407
 H      0.11387669      0.15033165      0.53172662      0.01536268      0.01895628      0.02500280
    2
 MD step:        3500 time   8.4660951427675002     
 H     -0.09988599      0.08407903     -0.19008668     -0.01331367      0.00905806      0.01630752
 H      0.11572420      0.15262097      0.53471484      0.01518446      0.01890052      0.02439934
    2
 MD step:        3550 time   8.5870393590927510     
 H     -0.10148418      0.08517781     -0.18807419     -0.01311101      0.00911107      0.01698377
 H      0.11754865      0.15490362      0.53762560      0.01498179      0.01884751      0.02372309
    2
 MD step:        3600 time   8.7079835754179999     
 H     -0.10305646      0.08628287     -0.18597583     -0.01288526      0.00916191      0.01772633
 H      0.11934719      0.15717999      0.54045050      0.01475604      0.01879667      0.02298053
    2
 MD step:        3650 time   8.8289277917432507     
 H     -0.10460013      0.08739342     -0.18378405     -0.01263829      0.00920171      0.01852727
 H      0.12111712      0.15945087      0.54318198      0.01450907      0.01875687      0.02217959
    2
 MD step:        3700 time   8.9498720080684997     
 H     -0.10611272      0.08850909     -0.18149220     -0.01237162      0.00924950      0.01938013
 H      0.12285597      0.16171663      0.54581339      0.01424240      0.01870908      0.02132674
    2
 MD step:        3750 time   9.0708162243937505     
 H     -0.10759197      0.08963089     -0.17909448     -0.01208747      0.00930295      0.02027650
 H      0.12456148      0.16397626      0.54833893      0.01395825      0.01865563      0.02043036
    2
 MD step:        3800 time   9.1917604407189994     
 H     -0.10903591      0.09076037     -0.17658608     -0.01178777      0.00937890      0.02120924
 H      0.12623168      0.16622820      0.55075379      0.01365855      0.01857968      0.01949762
    2
 MD step:        3850 time   9.3127046570442502     
 H     -0.11044277      0.09190011     -0.17396307     -0.01147489      0.00947061      0.02217008
 H      0.12786480      0.16846989      0.55305404      0.01334567      0.01848797      0.01853678
    2
 MD step:        3900 time   9.4336488733695010     
 H     -0.11181112      0.09305171     -0.17122260     -0.01115134      0.00957378      0.02315066
 H      0.12945941      0.17069972      0.55523682      0.01302212      0.01838480      0.01755620
    2
 MD step:        3950 time   9.5545930896947500     
 H     -0.11313981      0.09421590     -0.16836271     -0.01081955      0.00967731      0.02414316
 H      0.13101437      0.17291696      0.55730020      0.01269033      0.01828127      0.01656370
    2
 MD step:        4000 time   9.6755373060200007     
 H     -0.11442803      0.09539204     -0.16538253     -0.01048249      0.00976853      0.02513853
 H      0.13252884      0.17512225      0.55924328      0.01235327      0.01819005      0.01556833
    2
 MD step:        4050 time   9.7964815223452497     
 H     -0.11567530      0.09657822     -0.16228217     -0.01014267      0.00984609      0.02612931
 H      0.13400237      0.17731749      0.56106618      0.01201345      0.01811249      0.01457755
    2
 MD step:        4100 time   9.9174257386705005     
 H     -0.11688144      0.09777324     -0.15906269     -0.00980313      0.00991232      0.02710684
 H      0.13543477      0.17950390      0.56276996      0.01167391      0.01804627      0.01360002
    2
 MD step:        4150 time   10.038369954995749     
 H     -0.11804668      0.09897578     -0.15572618     -0.00946662      0.00997598      0.02806354
 H      0.13682627      0.18168280      0.56435671      0.01133740      0.01798260      0.01264332
    2
 MD step:        4200 time   10.159314171321000     
 H     -0.11917154      0.10018678     -0.15227560     -0.00913606      0.01005027      0.02899169
 H      0.13817740      0.18385323      0.56582938      0.01100684      0.01790831      0.01171517
    2
 MD step:        4250 time   10.280258387646251     
 H     -0.12025695      0.10140724     -0.14871490     -0.00881456      0.01013525      0.02988332
 H      0.13948906      0.18601419      0.56719195      0.01068534      0.01782333      0.01082354
    2
 MD step:        4300 time   10.401202603971500     
 H     -0.12130417      0.10263889     -0.14504893     -0.00850506      0.01023234      0.03073118
 H      0.14076254      0.18816397      0.56844923      0.01037584      0.01772624      0.00997568
    2
 MD step:        4350 time   10.522146820296751     
 H     -0.12231484      0.10388227     -0.14128346     -0.00821080      0.01032767      0.03152749
 H      0.14199947      0.19030202      0.56960702      0.01008158      0.01763092      0.00917937
    2
 MD step:        4400 time   10.643091036622000     
 H     -0.12329101      0.10513639     -0.13742517     -0.00793494      0.01040834      0.03226500
 H      0.14320190      0.19242932      0.57067199      0.00980572      0.01755024      0.00844186
    2
 MD step:        4450 time   10.764035252947250     
 H     -0.12423507      0.10639917     -0.13348156     -0.00768044      0.01046884      0.03293721
 H      0.14437222      0.19454798      0.57165164      0.00955123      0.01748974      0.00776965
    2
 MD step:        4500 time   10.884979469272501     
 H     -0.12514982      0.10766741     -0.12946097     -0.00745062      0.01050035      0.03353698
 H      0.14551323      0.19666117      0.57255431      0.00932140      0.01745823      0.00716988
    2
 MD step:        4550 time   11.005923685597750     
 H     -0.12603838      0.10893874     -0.12537244     -0.00724792      0.01052060      0.03405965
 H      0.14662805      0.19877126      0.57338905      0.00911870      0.01743798      0.00664721
    2
 MD step:        4600 time   11.126867901923001     
 H     -0.12690423      0.11021162     -0.12122571     -0.00707554      0.01052889      0.03449883
 H      0.14772016      0.20087981      0.57416557      0.00894632      0.01742969      0.00620803
    2
 MD step:        4650 time   11.247812118248250     
 H     -0.12775117      0.11148606     -0.11703106     -0.00693554      0.01054664      0.03485131
 H      0.14879336      0.20298681      0.57489418      0.00880632      0.01741194      0.00585555
    2
 MD step:        4700 time   11.368756334573501     
 H     -0.12858328      0.11276273     -0.11279928     -0.00683072      0.01056613      0.03511211
 H      0.14985173      0.20509156      0.57558566      0.00870150      0.01739245      0.00559475
    2
 MD step:        4750 time   11.489700550898750     
 H     -0.12940493      0.11404199     -0.10854164     -0.00676297      0.01058720      0.03527871
 H      0.15089965      0.20719372      0.57625128      0.00863375      0.01737138      0.00542815
    2
 MD step:        4800 time   11.610644767224001     
 H     -0.13022074      0.11532312     -0.10426968     -0.00673433      0.01059480      0.03534834
 H      0.15194171      0.20929403      0.57690258      0.00860512      0.01736378      0.00535852
    2
 MD step:        4850 time   11.731588983549251     
 H     -0.13103554      0.11660355     -0.09999527     -0.00674647      0.01057401      0.03531932
 H      0.15298277      0.21139503      0.57755142      0.00861725      0.01738457      0.00538754
    2
 MD step:        4900 time   11.852533199874500     
 H     -0.13185431      0.11787979     -0.09573030     -0.00680025      0.01052490      0.03519189
 H      0.15402780      0.21350022      0.57820972      0.00867103      0.01743368      0.00551497
    2
 MD step:        4950 time   11.973477416199751     
 H     -0.13268216      0.11914786     -0.09148674     -0.00689674      0.01044079      0.03496586
 H      0.15508192      0.21561358      0.57888942      0.00876752      0.01751779      0.00574100
    2
 MD step:        5000 time   12.094421632525000     
 H     -0.13352425      0.12040493     -0.08727630     -0.00703553      0.01034427      0.03464454
 H      0.15615026      0.21773794      0.57960223      0.00890631      0.01761431      0.00606232
    2
 MD step:        5050 time   12.215365848850251     
 H     -0.13438569      0.12164945     -0.08311040     -0.00721668      0.01023666      0.03423005
 H      0.15723796      0.21987484      0.58035959      0.00908746      0.01772192      0.00647682
    2
 MD step:        5100 time   12.336310065175500     
 H     -0.13527152      0.12288152     -0.07899996     -0.00743868      0.01013769      0.03372806
 H      0.15835006      0.22202420      0.58117241      0.00930946      0.01782089      0.00697880
    2
 MD step:        5150 time   12.457254281500751     
 H     -0.13618662      0.12410162     -0.07495532     -0.00770037      0.01003925      0.03314320
 H      0.15949142      0.22418553      0.58205103      0.00957115      0.01791933      0.00756366
    2
 MD step:        5200 time   12.578198497826001     
 H     -0.13713566      0.12530978     -0.07098606     -0.00799946      0.00993755      0.03248258
 H      0.16066671      0.22635880      0.58300503      0.00987025      0.01802103      0.00822428
    2
 MD step:        5250 time   12.699142714151250     
 H     -0.13812301      0.12650471     -0.06710091     -0.00833343      0.00981810      0.03175353
 H      0.16188032      0.22854529      0.58404314      0.01020421      0.01814048      0.00895333
    2
 MD step:        5300 time   12.820086930476501     
 H     -0.13915270      0.12768341     -0.06330767     -0.00869910      0.00966949      0.03096455
 H      0.16313628      0.23074802      0.58517316      0.01056988      0.01828909      0.00974231
    2
 MD step:        5350 time   12.941031146801750     
 H     -0.14022833      0.12884258     -0.05961295     -0.00909242      0.00949292      0.03012574
 H      0.16443816      0.23297028      0.58640170      0.01096320      0.01846566      0.01058112
    2
 MD step:        5400 time   13.061975363127001     
 H     -0.14135300      0.12997867     -0.05602220     -0.00950909      0.00929381      0.02924738
 H      0.16578909      0.23521562      0.58773421      0.01137987      0.01866477      0.01145948
    2
 MD step:        5450 time   13.182919579452250     
 H     -0.14252919      0.13109045     -0.05253945     -0.00994382      0.00908957      0.02834146
 H      0.16719155      0.23748526      0.58917472      0.01181460      0.01886901      0.01236540
    2
 MD step:        5500 time   13.303863795777501     
 H     -0.14375881      0.13217774     -0.04916738     -0.01039136      0.00889468      0.02741954
 H      0.16864743      0.23977941      0.59072591      0.01226214      0.01906390      0.01328732
    2
 MD step:        5550 time   13.424808012102751     
 H     -0.14504302      0.13324262     -0.04590712     -0.01084581      0.00871673      0.02649399
 H      0.17015790      0.24209595      0.59238891      0.01271659      0.01924185      0.01421287
    2
 MD step:        5600 time   13.545752228428000     
 H     -0.14638234      0.13428691     -0.04275847     -0.01130158      0.00855452      0.02557625
 H      0.17172348      0.24443309      0.59416352      0.01317236      0.01940406      0.01513061
    2
 MD step:        5650 time   13.666696444753251     
 H     -0.14777655      0.13531204     -0.03971973     -0.01175261      0.00839738      0.02467824
 H      0.17334394      0.24678939      0.59604803      0.01362339      0.01956120      0.01602862
    2
 MD step:        5700 time   13.787640661078500     
 H     -0.14922476      0.13631771     -0.03678789     -0.01219351      0.00823001      0.02381017
 H      0.17501841      0.24916515      0.59803946      0.01406429      0.01972857      0.01689669
    2
 MD step:        5750 time   13.908584877403751     
 H     -0.15072535      0.13730234     -0.03395864     -0.01261798      0.00805029      0.02298364
 H      0.17674527      0.25156195      0.60013346      0.01448876      0.01990829      0.01772322
    2
 MD step:        5800 time   14.029529093729000     
 H     -0.15227605      0.13826412     -0.03122640     -0.01302107      0.00785227      0.02220737