    2
 MD step:           0 time   0.0000000000000000     
 H      0.00000000      0.00000000     -0.37000000      0.00039024     -0.03022332      0.00725132
 H      0.00000000      0.00000000      0.37000000     -0.02001310     -0.00476536     -0.04546262
    2
 MD step:          50 time  0.12094421632525000     
 H      0.00004724     -0.00365536     -0.36913561      0.00039128     -0.03022395      0.00699439
 H     -0.00242051     -0.00057632      0.36451418     -0.02001414     -0.00476472     -0.04520569
    2
 MD step:         100 time  0.24188843265050000     
 H      0.00009464     -0.00731094     -0.36831965      0.00039324     -0.03022750      0.00645067
 H     -0.00484118     -0.00115241      0.35907678     -0.02001609     -0.00476118     -0.04466197
    2
 MD step:         150 time  0.36283264897575002     
 H      0.00014275     -0.01096726     -0.36758697      0.00040294     -0.03023647      0.00561670
 H     -0.00726256     -0.00172778      0.35372267     -0.02002580     -0.00475221     -0.04382800
    2
 MD step:         200 time  0.48377686530100000     
 H      0.00019219     -0.01462512     -0.36697274      0.00041615     -0.03025345      0.00449234
 H     -0.00968527     -0.00230159      0.34848700     -0.02003900     -0.00473522     -0.04270365
    2
 MD step:         250 time  0.60472108162625005     
 H      0.00024379     -0.01828564     -0.36651189      0.00043861     -0.03028102      0.00308143
 H     -0.01211014     -0.00287274      0.34340471     -0.02006147     -0.00470766     -0.04129273
    2
 MD step:         300 time  0.72566529795150003     
 H      0.00029877     -0.02195027     -0.36623856      0.00047228     -0.03032161      0.00139323
 H     -0.01453840     -0.00343980      0.33850995     -0.02009514     -0.00466707     -0.03960453
    2
 MD step:         350 time  0.84660951427675002     
 H      0.00035852     -0.02562071     -0.36618548      0.00051917     -0.03037744     -0.00055770
 H     -0.01697142     -0.00400104      0.33383543     -0.02014202     -0.00461123     -0.03765360
    2
 MD step:         400 time  0.96755373060200001     
 H      0.00042493     -0.02929891     -0.36638321      0.00058015     -0.03045038     -0.00275051
 H     -0.01941109     -0.00455451      0.32941173     -0.02020301     -0.00453830     -0.03546079
    2
 MD step:         450 time   1.0884979469272500     
 H      0.00049940     -0.03298705     -0.36685951      0.00065408     -0.03054180     -0.00515922
 H     -0.02185884     -0.00509805      0.32526658     -0.02027694     -0.00444687     -0.03305208
    2
 MD step:         500 time   1.2094421632525001     
 H      0.00058375     -0.03668740     -0.36763860      0.00074381     -0.03065254     -0.00775216
 H     -0.02431646     -0.00562938      0.32142424     -0.02036667     -0.00433614     -0.03045914
    2
 MD step:         550 time   1.3303863795777500     
 H      0.00067995     -0.04040233     -0.36874064      0.00084983     -0.03078273     -0.01049329
 H     -0.02678593     -0.00614613      0.31790485     -0.02047269     -0.00420594     -0.02771801
    2
 MD step:         600 time   1.4513305959030001     
 H      0.00079019     -0.04413415     -0.37018118      0.00097537     -0.03093183     -0.01334281
 H     -0.02926945     -0.00664598      0.31472395     -0.02059823     -0.00405685     -0.02486849
    2
 MD step:         650 time   1.5722748122282502     
 H      0.00091621     -0.04788508     -0.37197074      0.00111071     -0.03109847     -0.01625757
 H     -0.03176873     -0.00712673      0.31189207     -0.02073356     -0.00389020     -0.02195374
    2
 MD step:         700 time   1.6932190285535000     
 H      0.00105932     -0.05165714     -0.37411455      0.00125748     -0.03128060     -0.01919341
 H     -0.03428511     -0.00758635      0.30941445     -0.02088034     -0.00370807     -0.01901790
    2
 MD step:         750 time   1.8141632448787501     
 H      0.00122085     -0.05545201     -0.37661241      0.00141519     -0.03147539     -0.02210481
 H     -0.03681991     -0.00802316      0.30729087     -0.02103805     -0.00351328     -0.01610649
    2
 MD step:         800 time   1.9351074612040000     
 H      0.00140217     -0.05927104     -0.37945870      0.00158555     -0.03167944     -0.02494786
 H     -0.03937450     -0.00843580      0.30551572     -0.02120841     -0.00330923     -0.01326344
    2
 MD step:         850 time   2.0560516775292501     
 H      0.00160440     -0.06311511     -0.38264251      0.00175809     -0.03188874     -0.02767950
 H     -0.04195000     -0.00882341      0.30407810     -0.02138094     -0.00309993     -0.01053180
    2
 MD step:         900 time   2.1769958938545000     
 H      0.00182743     -0.06698460     -0.38614798      0.00192923     -0.03209895     -0.03026054
 H     -0.04454631     -0.00918560      0.30296213     -0.02155209     -0.00288972     -0.00795076
    2
 MD step:         950 time   2.2979401101797499     
 H      0.00207085     -0.07087933     -0.38995467      0.00209566     -0.03230545     -0.03265525
 H     -0.04716300     -0.00952255      0.30214739     -0.02171851     -0.00268322     -0.00555605
    2
 MD step:        1000 time   2.4188843265050002     
 H      0.00233418     -0.07479857     -0.39403814      0.00225909     -0.03250357     -0.03483276
 H     -0.04979960     -0.00983498      0.30160942     -0.02188195     -0.00248511     -0.00337854
    2
 MD step:        1050 time   2.5398285428302501     
 H      0.00261714     -0.07874104     -0.39837054      0.00241695     -0.03268871     -0.03676784
 H     -0.05245583     -0.01012419      0.30132039     -0.02203981     -0.00229996     -0.00144346
    2
 MD step:        1100 time   2.6607727591554999     
 H      0.00291807     -0.08270489     -0.40292125      0.00255673     -0.03285648     -0.03844010
 H     -0.05513003     -0.01039202      0.30124966     -0.02217959     -0.00213219      0.00022880
    2
 MD step:        1150 time   2.7817169754807503     
 H      0.00323468     -0.08668778     -0.40765761      0.00267528     -0.03300290     -0.03983591
 H     -0.05781992     -0.01064080      0.30136459     -0.02229813     -0.00198577      0.00162460
    2
 MD step:        1200 time   2.9026611918060001     
 H      0.00356446     -0.09068691     -0.41254558      0.00277501     -0.03312440     -0.04094633
 H     -0.06052296     -0.01087336      0.30163112     -0.02239786     -0.00186427      0.00273503
    2
 MD step:        1250 time   3.0236054081312500     
 H      0.00390538     -0.09469907     -0.41755045      0.00286056     -0.03321802     -0.04176867
 H     -0.06323716     -0.01109287      0.30201455     -0.02248341     -0.00177065      0.00355737
    2
 MD step:        1300 time   3.1445496244565003     
 H      0.00425532     -0.09872074     -0.42263732      0.00292052     -0.03328117     -0.04230296
 H     -0.06596036     -0.01130289      0.30247999     -0.02254337     -0.00170751      0.00409166
    2
 MD step:        1350 time   3.2654938407817502     
 H      0.00461060     -0.10274810     -0.42777166      0.00294926     -0.03331196     -0.04255468
 H     -0.06868891     -0.01150720      0.30299289     -0.02257212     -0.00167672      0.00434338
    2
 MD step:        1400 time   3.3864380571070001     
 H      0.00496746     -0.10677715     -0.43291976      0.00294804     -0.03330902     -0.04253235
 H     -0.07141905     -0.01170982      0.30351955     -0.02257090     -0.00167965      0.00432105
    2
 MD step:        1450 time   3.5073822734322500     
 H      0.00532279     -0.11080377     -0.43804913      0.00292411     -0.03327149     -0.04224692
 H     -0.07414765     -0.01191489      0.30402749     -0.02254697     -0.00171718      0.00403561
    2
 MD step:        1500 time   3.6283264897575003     
 H      0.00567404     -0.11482373     -0.44312874      0.00288056     -0.03319901     -0.04171187
 H     -0.07687216     -0.01212660      0.30448566     -0.02250342     -0.00178967      0.00350057
    2
 MD step:        1550 time   3.7492707060827501     
 H      0.00601813     -0.11883282     -0.44812928      0.00280282     -0.03309160     -0.04094186
 H     -0.07958953     -0.01234919      0.30486477     -0.02242568     -0.00189708      0.00273055
    2
 MD step:        1600 time   3.8702149224080000     
 H      0.00635061     -0.12282681     -0.45302327      0.00269002     -0.03294967     -0.03995273
 H     -0.08229528     -0.01258687      0.30513732     -0.02231288     -0.00203900      0.00174143
    2
 MD step:        1650 time   3.9911591387332503     
 H      0.00666781     -0.12680160     -0.45778525      0.00255275     -0.03277407     -0.03876165
 H     -0.08498575     -0.01284376      0.30527786     -0.02217561     -0.00221460      0.00055035
    2
 MD step:        1700 time   4.1121033550585002     
 H      0.00696742     -0.13075316     -0.46239179      0.00239800     -0.03256577     -0.03738522
 H     -0.08765863     -0.01312388      0.30526297     -0.02202086     -0.00242290     -0.00082608
    2
 MD step:        1750 time   4.2330475713837501     
 H      0.00724694     -0.13467763     -0.46682156      0.00222031     -0.03232619     -0.03584143
 H     -0.09031142     -0.01343110      0.30507130     -0.02184317     -0.00266249     -0.00236987
    2
 MD step:        1800 time   4.3539917877090000     
 H      0.00750315     -0.13857129     -0.47105536      0.00201027     -0.03205682     -0.03414740
 H     -0.09294090     -0.01376910      0.30468367     -0.02163313     -0.00293185     -0.00406390
    2
 MD step:        1850 time   4.4749360040342498     
 H      0.00773204     -0.14243067     -0.47507605      0.00177148     -0.03175938     -0.03232025
 H     -0.09554307     -0.01414141      0.30408293     -0.02139434     -0.00322929     -0.00589105
    2
 MD step:        1900 time   4.5958802203594997     
 H      0.00793109     -0.14625247     -0.47886859      0.00151908     -0.03143581     -0.03037735
 H     -0.09811539     -0.01455129      0.30325403     -0.02114193     -0.00355286     -0.00783395
    2
 MD step:        1950 time   4.7168244366847505     
 H      0.00809926     -0.15003366     -0.48242001      0.00125908     -0.03108821     -0.02833580
 H     -0.10065682     -0.01500177      0.30218402     -0.02088194     -0.00390046     -0.00987550
    2
 MD step:        2000 time   4.8377686530100004     
 H      0.00823456     -0.15377146     -0.48571933      0.00097350     -0.03071856     -0.02621088
 H     -0.10316539     -0.01549565      0.30086189     -0.02059636     -0.00427011     -0.01200042
    2
 MD step:        2050 time   4.9587128693352502     
 H      0.00833371     -0.15746333     -0.48875742      0.00066247     -0.03032915     -0.02401875
 H     -0.10563782     -0.01603546      0.29927855     -0.02028532     -0.00465953     -0.01419255
    2
 MD step:        2100 time   5.0796570856605001     
 H      0.00839427     -0.16110703     -0.49152711      0.00033875     -0.02992234     -0.02177502
 H     -0.10807165     -0.01662344      0.29742680     -0.01996160     -0.00506633     -0.01643628
    2
 MD step:        2150 time   5.2006013019857500     
 H      0.00841565     -0.16470059     -0.49402304      0.00001416     -0.02950044     -0.01949404
 H     -0.11046631     -0.01726156      0.29530130     -0.01963702     -0.00548824     -0.01871726
    2
 MD step:        2200 time   5.3215455183109999     
 H      0.00839746     -0.16824234     -0.49624160     -0.00031661     -0.02906600     -0.01719084
 H     -0.11282138     -0.01795148      0.29289842     -0.01930625     -0.00592267     -0.02102046
    2
 MD step:        2250 time   5.4424897346362506     
 H      0.00833832     -0.17173092     -0.49818098     -0.00066535     -0.02862159     -0.01487957
 H     -0.11513551     -0.01869458      0.29021636     -0.01895751     -0.00636708     -0.02333173
    2
 MD step:        2300 time   5.5634339509615005     
 H      0.00823589     -0.17516527     -0.49984103     -0.00102912     -0.02816989     -0.01257427
 H     -0.11740636     -0.01949190      0.28725498     -0.01859374     -0.00681879     -0.02563703
    2
 MD step:        2350 time   5.6843781672867504     
 H      0.00808956     -0.17854471     -0.50122338     -0.00138868     -0.02771384     -0.01028969
 H     -0.11963329     -0.02034414      0.28401590     -0.01823417     -0.00727484     -0.02792161
    2
 MD step:        2400 time   5.8053223836120003     
 H      0.00790061     -0.18186888     -0.50233143     -0.00173465     -0.02725661     -0.00804082
 H     -0.12181761     -0.02125165      0.28050251     -0.01788820     -0.00773206     -0.03017048
    2
 MD step:        2450 time   5.9262665999372501     
 H      0.00766969     -0.18513784     -0.50317035     -0.00208615     -0.02680124     -0.00584126
 H     -0.12395997     -0.02221437      0.27671999     -0.01753671     -0.00818743     -0.03237005
    2
 MD step:        2500 time   6.0472108162625000     
 H      0.00739565     -0.18835201     -0.50374695     -0.00244613     -0.02635113     -0.00370576
 H     -0.12605919     -0.02323188      0.27267515     -0.01717672     -0.00863754     -0.03450555
    2
 MD step:        2550 time   6.1681550325877499     
 H      0.00707825     -0.19151224     -0.50406995     -0.00279913     -0.02591010     -0.00165014
 H     -0.12811507     -0.02430332      0.26837672     -0.01682373     -0.00907858     -0.03656116
    2
 MD step:        2600 time   6.2890992489130007     
 H      0.00671961     -0.19461988     -0.50414991     -0.00312795     -0.02548190      0.00031077
 H     -0.13012970     -0.02542737      0.26383525     -0.01649491     -0.00950677     -0.03852207
    2
 MD step:        2650 time   6.4100434652382505     
 H      0.00632236     -0.19767671     -0.50399923     -0.00343848     -0.02507071      0.00216110
 H     -0.13210572     -0.02660222      0.25906313     -0.01618437     -0.00991796     -0.04037240
    2
 MD step:        2700 time   6.5309876815635004     
 H      0.00588818     -0.20068505     -0.50363227     -0.00374143     -0.02468092      0.00388481
 H     -0.13404481     -0.02782554      0.25407473     -0.01588143     -0.01030775     -0.04209612
    2
 MD step:        2750 time   6.6519318978887503     
 H      0.00541768     -0.20364778     -0.50306527     -0.00403520     -0.02431705      0.00546620
 H     -0.13594759     -0.02909450      0.24888630     -0.01558765     -0.01067163     -0.04367750
    2
 MD step:        2800 time   6.7728761142140002     
 H      0.00491341     -0.20656831     -0.50231647     -0.00429670     -0.02398409      0.00688839
 H     -0.13781658     -0.03040564      0.24351606     -0.01532615     -0.01100459     -0.04509969
    2
 MD step:        2850 time   6.8938203305392500     
 H      0.00438028     -0.20945071     -0.50140617     -0.00451261     -0.02368733      0.00813420
 H     -0.13965673     -0.03175492      0.23798432     -0.01511025     -0.01130135     -0.04634551
    2
 MD step:        2900 time   7.0147645468644999     
 H      0.00382290     -0.21229966     -0.50035660     -0.00470120     -0.02343173      0.00918881
 H     -0.14147261     -0.03313765      0.23231332     -0.01492165     -0.01155694     -0.04740011
    2
 MD step:        2950 time   7.1357087631897507     
 H      0.00324411     -0.21512045     -0.49919184     -0.00486523     -0.02322273      0.01003642
 H     -0.14326710     -0.03454853      0.22652713     -0.01475763     -0.01176594     -0.04824772
    2
 MD step:        3000 time   7.2566529795150005     
 H      0.00264763     -0.21791907     -0.49793785     -0.00498949     -0.02306576      0.01066215
 H     -0.14504389     -0.03598160      0.22065170     -0.01463336     -0.01192291     -0.04887345
    2
 MD step:        3050 time   7.3775971958402504     
 H      0.00203962     -0.22070211     -0.49662228     -0.00505473     -0.02296615      0.01105252
 H     -0.14680914     -0.03743024      0.21471469     -0.01456812     -0.01202253     -0.04926382
    2
 MD step:        3100 time   7.4985414121655003     
 H      0.00142748     -0.22347685     -0.49527440     -0.00505872     -0.02292939      0.01119431
 H     -0.14857028     -0.03888717      0.20874538     -0.01456413     -0.01205928     -0.04940561
    2
 MD step:        3150 time   7.6194856284907502     
 H      0.00081756     -0.22625117     -0.49392486     -0.00502104     -0.02295999      0.01107900
 H     -0.15033363     -0.04034453      0.20277440     -0.01460181     -0.01202868     -0.04929031
    2
 MD step:        3200 time   7.7404298448160000     
 H      0.00021485     -0.22903351     -0.49260523     -0.00493634     -0.02306261      0.01069820
 H     -0.15210419     -0.04179387      0.19683333     -0.01468652     -0.01192606     -0.04890950
    2
 MD step:        3250 time   7.8613740611412499     
 H     -0.00037365     -0.23183282     -0.49134803     -0.00478181     -0.02324142      0.01004601
 H     -0.15388896     -0.04322623      0.19095470     -0.01484105     -0.01174725     -0.04825731
    2
 MD step:        3300 time   7.9823182774665007     
 H     -0.00093871     -0.23465852     -0.49018618     -0.00455026     -0.02349929      0.00912177
 H     -0.15569717     -0.04463221      0.18517141     -0.01507259     -0.01148938     -0.04733307
    2
 MD step:        3350 time   8.1032624937917497     
 H     -0.00147150     -0.23752030     -0.48915246     -0.00425082     -0.02383833      0.00792789
 H     -0.15753766     -0.04600210      0.17951626     -0.01537203     -0.01115034     -0.04613919
    2
 MD step:        3400 time   8.2242067101170004     
 H     -0.00196506     -0.24042802     -0.48827902     -0.00390230     -0.02425883      0.00647317
 H     -0.15941736     -0.04732606      0.17402138     -0.01572056     -0.01072985     -0.04468447
    2
 MD step:        3450 time   8.3451509264422494     
 H     -0.00241291     -0.24339150     -0.48759673     -0.00349152     -0.02476022      0.00476912
 H     -0.16134278     -0.04859427      0.16871766     -0.01613134     -0.01022845     -0.04298042
    2
 MD step:        3500 time   8.4660951427675002     
 H     -0.00280634     -0.24642040     -0.48713479     -0.00300159     -0.02534009      0.00283311
 H     -0.16332263     -0.04979704      0.16363428     -0.01662127     -0.00964858     -0.04104441
    2
 MD step:        3550 time   8.5870393590927510     
 H     -0.00313620     -0.24952395     -0.48691984     -0.00244247     -0.02599392      0.00068860
 H     -0.16536603     -0.05092517      0.15879789     -0.01718039     -0.00899476     -0.03889990
    2
 MD step:        3600 time   8.7079835754179999     
 H     -0.00339528     -0.25271076     -0.48697549     -0.00183678     -0.02671538     -0.00163614
 H     -0.16748023     -0.05197004      0.15423211     -0.01778608     -0.00827329     -0.03657516
    2
 MD step:        3650 time   8.8289277917432507     
 H     -0.00357912     -0.25598849     -0.48732155     -0.00119670     -0.02749624     -0.00410821
 H     -0.16966966     -0.05292398      0.14995673     -0.01842616     -0.00749243     -0.03410309
    2
 MD step:        3700 time   8.9498720080684997     
 H     -0.00368282     -0.25936380     -0.48797376     -0.00050891     -0.02832716     -0.00669291
 H     -0.17193923     -0.05378036      0.14598751     -0.01911395     -0.00666151     -0.03151839
    2
 MD step:        3750 time   9.0708162243937505     
 H     -0.00370035     -0.26284206     -0.48894343      0.00022530     -0.02919671     -0.00935097
 H     -0.17429497     -0.05453377      0.14233574     -0.01984816     -0.00579197     -0.02886033
    2
 MD step:        3800 time   9.1917604407189994     
 H     -0.00362718     -0.26642721     -0.49023702      0.00098536     -0.03009253     -0.01204238
 H     -0.17674141     -0.05518030      0.13900789     -0.02060822     -0.00489614     -0.02616893
    2
 MD step:        3850 time   9.3127046570442502     
 H     -0.00346244     -0.27012157     -0.49185592      0.00173737     -0.03100035     -0.01472354
 H     -0.17927943     -0.05571761      0.13600535     -0.02136022     -0.00398832     -0.02348776
    2
 MD step:        3900 time   9.4336488733695010     
 H     -0.00320724     -0.27392577     -0.49379647      0.00248259     -0.03190651     -0.01735496
 H     -0.18190790     -0.05614509      0.13332447     -0.02210545     -0.00308216     -0.02085635
    2
 MD step:        3950 time   9.5545930896947500     
 H     -0.00286182     -0.27783874     -0.49605026      0.00322878     -0.03279650     -0.01989670
 H     -0.18462659     -0.05646381      0.13095683     -0.02285163     -0.00219218     -0.01831461
    2
 MD step:        4000 time   9.6755373060200007     
 H     -0.00242658     -0.28185766     -0.49860419      0.00396510     -0.03365642     -0.02231266
 H     -0.18743510     -0.05667656      0.12888932     -0.02358795     -0.00133225     -0.01589864
    2
 MD step:        4050 time   9.7964815223452497     
 H     -0.00190470     -0.28597804     -0.50144091      0.00465434     -0.03447195     -0.02456731
 H     -0.19033025     -0.05678786      0.12710461     -0.02427720     -0.00051672     -0.01364400
    2
 MD step:        4100 time   9.9174257386705005     
 H     -0.00130324     -0.29019373     -0.50453908      0.00528151     -0.03523060     -0.02663184
 H     -0.19330498     -0.05680384      0.12558134     -0.02490437      0.00024192     -0.01157946
    2
 MD step:        4150 time   10.038369954995749     
 H     -0.00062922     -0.29449717     -0.50787422      0.00585725     -0.03592122     -0.02848241
 H     -0.19635227     -0.05673208      0.12429504     -0.02548011      0.00093255     -0.00972889
    2
 MD step:        4200 time   10.159314171321000     
 H      0.00011170     -0.29887952     -0.51141923      0.00638728     -0.03653405     -0.03009987
 H     -0.19946647     -0.05658141      0.12321862     -0.02601014      0.00154538     -0.00811143
    2
 MD step:        4250 time   10.280258387646251     
 H      0.00091329     -0.30333089     -0.51514510      0.00685339     -0.03706116     -0.03147070
 H     -0.20264132     -0.05636172      0.12232305     -0.02647624      0.00207249     -0.00674061
    2
 MD step:        4300 time   10.401202603971500     
 H      0.00176549     -0.30784043     -0.51902122      0.00722296     -0.03749535     -0.03258369
 H     -0.20586679     -0.05608385      0.12157773     -0.02684582      0.00250668     -0.00562761
    2
 MD step:        4350 time   10.522146820296751     
 H      0.00265679     -0.31239668     -0.52301623      0.00750321     -0.03783280     -0.03343663
 H     -0.20913137     -0.05575928      0.12095131     -0.02712606      0.00284412     -0.00477467
    2
 MD step:        4400 time   10.643091036622000     
 H      0.00357780     -0.31698773     -0.52709866      0.00771666     -0.03807049     -0.03402927
 H     -0.21242565     -0.05539991      0.12041230     -0.02733951      0.00308181     -0.00418203
    2
 MD step:        4450 time   10.764035252947250     
 H      0.00452078     -0.32160143     -0.53123722      0.00786520     -0.03820746     -0.03436634
 H     -0.21574189     -0.05501789      0.11992943     -0.02748805      0.00321878     -0.00384497
    2
 MD step:        4500 time   10.884979469272501     
 H      0.00547656     -0.32622559     -0.53540141      0.00792161     -0.03824339     -0.03445380
 H     -0.21907095     -0.05462540      0.11947218     -0.02754446      0.00325471     -0.00375750
    2
 MD step:        4550 time   11.005923685597750     
 H      0.00643266     -0.33084804     -0.53956151      0.00787328     -0.03817943     -0.03430082
 H     -0.22240032     -0.05423464      0.11901084     -0.02749614      0.00319076     -0.00391048
    2
 MD step:        4600 time   11.126867901923001     
 H      0.00737786     -0.33545686     -0.54368923      0.00774728     -0.03801874     -0.03392082
 H     -0.22571879     -0.05385750      0.11851713     -0.02737014      0.00303006     -0.00429048
    2
 MD step:        4650 time   11.247812118248250     
 H      0.00830457     -0.34004057     -0.54775797      0.00756777     -0.03776485     -0.03332762
 H     -0.22901877     -0.05350546      0.11796443     -0.02719063      0.00277618     -0.00488368
    2
 MD step:        4700 time   11.368756334573501     
 H      0.00920575     -0.34458814     -0.55174278      0.00732203     -0.03742182     -0.03253552
 H     -0.23229322     -0.05318956      0.11732781     -0.02694489      0.00243314     -0.00567578
    2
 MD step:        4750 time   11.489700550898750     
 H      0.01007198     -0.34908907     -0.55562052      0.00698566     -0.03699409     -0.03155929
 H     -0.23553272     -0.05292032      0.11658411     -0.02660852      0.00200541     -0.00665201
    2
 MD step:        4800 time   11.610644767224001     
 H      0.01089211     -0.35353335     -0.55936976      0.00656582     -0.03648625     -0.03041336
 H     -0.23872612     -0.05270771      0.11571192     -0.02618867      0.00149758     -0.00779794
    2
 MD step:        4850 time   11.731588983549251     
 H      0.01165837     -0.35791170     -0.56297105      0.00610106     -0.03590476     -0.02911582
 H     -0.24186566     -0.05256104      0.11469177     -0.02572392      0.00091608     -0.00909548
    2
 MD step:        4900 time   11.852533199874500     
 H      0.01236675     -0.36221557     -0.56640708      0.00560533     -0.03525540     -0.02768270
 H     -0.24494730     -0.05248885      0.11350637     -0.02522819      0.00026673     -0.01052860
    2
 MD step:        4950 time   11.973477416199751     
 H      0.01301161     -0.36643703     -0.56966224      0.00504617     -0.03454300     -0.02612734
 H     -0.24796544     -0.05249907      0.11214009     -0.02466902     -0.00044567     -0.01208396
    2
 MD step:        5000 time   12.094421632525000     
 H      0.01358441     -0.37056884     -0.57272271      0.00441481     -0.03377390     -0.02446595
 H     -0.25091150     -0.05259894      0.11057913     -0.02403766     -0.00121477     -0.01374535
    2
 MD step:        5050 time   12.215365848850251     
 H      0.01407772     -0.37460451     -0.57557663      0.00373964     -0.03295440     -0.02271413
 H     -0.25377809     -0.05279494      0.10881160     -0.02336249     -0.00203427     -0.01549718
    2
 MD step:        5100 time   12.336310065175500     
 H      0.01448859     -0.37853835     -0.57821396      0.00305320     -0.03209077     -0.02088695
 H     -0.25656223     -0.05309278      0.10682750     -0.02267605     -0.00289790     -0.01732435
    2
 MD step:        5150 time   12.457254281500751     
 H      0.01481560     -0.38236538     -0.58062650      0.00234907     -0.03118936     -0.01899923
 H     -0.25926251     -0.05349743      0.10461861     -0.02197192     -0.00379931     -0.01921207
    2
 MD step:        5200 time   12.578198497826001     
 H      0.01505467     -0.38608139     -0.58280771      0.00159407     -0.03025552     -0.01706327
 H     -0.26187485     -0.05401310      0.10217838     -0.02121693     -0.00473315     -0.02114803
    2
 MD step:        5250 time   12.699142714151250     
 H      0.01519934     -0.38968275     -0.58475246      0.00079436     -0.02929476     -0.01509133
 H     -0.26439279     -0.05464341      0.09950169     -0.02041722     -0.00569391     -0.02311997
    2
 MD step:        5300 time   12.820086930476501     
 H      0.01524678     -0.39316665     -0.58645729     -0.00000672     -0.02831408     -0.01309840
 H     -0.26681350     -0.05539119      0.09658508     -0.01961614     -0.00667459     -0.02511290
    2
 MD step:        5350 time   12.941031146801750     
 H      0.01519857     -0.39653105     -0.58792049     -0.00078962     -0.02731963     -0.01109734
 H     -0.26913856     -0.05625847      0.09342685     -0.01883324     -0.00766905     -0.02711396
    2
 MD step:        5400 time   13.061975363127001     
 H      0.01505504     -0.39977459     -0.58914167     -0.00158913     -0.02631625     -0.00909805
 H     -0.27136831     -0.05724661      0.09002659     -0.01803373     -0.00867242     -0.02911325
    2
 MD step:        5450 time   13.182919579452250     
 H      0.01481289     -0.40289655     -0.59012179     -0.00241948     -0.02531039     -0.00711336
 H     -0.27349942     -0.05835632      0.08638528     -0.01720338     -0.00967828     -0.03109795
    2
 MD step:        5500 time   13.303863795777501     
 H      0.01446966     -0.40589705     -0.59086342     -0.00325239     -0.02430878     -0.00515625
 H     -0.27552946     -0.05958750      0.08250547     -0.01637047     -0.01067989     -0.03305505
    2
 MD step:        5550 time   13.424808012102751     
 H      0.01402773     -0.40877701     -0.59137066     -0.00404887     -0.02331822     -0.00323955
 H     -0.27746081     -0.06093922      0.07839128     -0.01557399     -0.01167045     -0.03497175
    2
 MD step:        5600 time   13.545752228428000     
 H      0.01349156     -0.41153818     -0.59164916     -0.00481441     -0.02234561     -0.00137589
 H     -0.27929791     -0.06240973      0.07404835     -0.01480844     -0.01264307     -0.03683542
    2
 MD step:        5650 time   13.666696444753251     
 H      0.01286308     -0.41418315     -0.59170609     -0.00558110     -0.02139761      0.00042291
 H     -0.28104270     -0.06399644      0.06948384     -0.01404176     -0.01359107     -0.03863421
    2
 MD step:        5700 time   13.787640661078500     
 H      0.01214146     -0.41671526     -0.59154992     -0.00634852     -0.02048068      0.00214572
 H     -0.28269435     -0.06569600      0.06470623     -0.01327433     -0.01450800     -0.04035702
    2
 MD step:        5750 time   13.908584877403751     
 H      0.01132931     -0.41913879     -0.59119073     -0.00707030     -0.01960351      0.00377762
 H     -0.28425547     -0.06750415      0.05972560     -0.01255255     -0.01538516     -0.04198892
    2
 MD step:        5800 time   14.029529093729000     
 H      0.01043429     -0.42145907     -0.59064041     -0.00771957     -0.01877466      0.00530436