    2
 MD step:           0 time   0.0000000000000000     
 H      0.00000000      0.00000000     -0.37000000      0.00334054     -0.01396603      0.01386877
 H      0.00000000      0.00000000      0.37000000     -0.00274576     -0.01984468      0.01082099
    2
 MD step:          50 time  0.12094421632525000     
 H      0.00040402     -0.00168911     -0.36833065      0.00334062     -0.01396596      0.01371804
 H     -0.00033209     -0.00240010      0.37131674     -0.00274583     -0.01984475      0.01097172
    2
 MD step:         100 time  0.24188843265050000     
 H      0.00080807     -0.00337819     -0.36668482      0.00334096     -0.01396563      0.01347863
 H     -0.00066419     -0.00480023      0.37265699     -0.00274617     -0.01984508      0.01121113
    2
 MD step:         150 time  0.36283264897575002     
 H      0.00121218     -0.00506722     -0.36507622      0.00334175     -0.01396487      0.01312363
 H     -0.00099637     -0.00720041      0.37403447     -0.00274696     -0.01984584      0.01156613
    2
 MD step:         200 time  0.48377686530100000     
 H      0.00161641     -0.00675612     -0.36351312      0.00334294     -0.01396372      0.01272254
 H     -0.00132867     -0.00960072      0.37545746     -0.00274815     -0.01984699      0.01196722
    2
 MD step:         250 time  0.60472108162625005     
 H      0.00202080     -0.00844487     -0.36199437      0.00334425     -0.01396246      0.01239647
 H     -0.00166112     -0.01200118      0.37692479     -0.00274946     -0.01984826      0.01229329
    2
 MD step:         300 time  0.72566529795150003     
 H      0.00242534     -0.01013348     -0.36050933      0.00334538     -0.01396136      0.01217859
 H     -0.00199372     -0.01440178      0.37842584     -0.00275059     -0.01984935      0.01251117
    2
 MD step:         350 time  0.84660951427675002     
 H      0.00283001     -0.01182197     -0.35904752      0.00334645     -0.01396033      0.01199818
 H     -0.00232646     -0.01680250      0.37995011     -0.00275166     -0.01985038      0.01269159
    2
 MD step:         400 time  0.96755373060200001     
 H      0.00323483     -0.01351031     -0.35760808      0.00334795     -0.01395888      0.01178094
 H     -0.00265934     -0.01920337      0.38149676     -0.00275317     -0.01985184      0.01290882
    2
 MD step:         450 time   1.0884979469272500     
 H      0.00363987     -0.01519843     -0.35620063      0.00335030     -0.01395662      0.01148215
 H     -0.00299245     -0.02160446      0.38307538     -0.00275551     -0.01985410      0.01320761
    2
 MD step:         500 time   1.2094421632525001     
 H      0.00404525     -0.01688623     -0.35483522      0.00335338     -0.01395363      0.01110556
 H     -0.00332589     -0.02400587      0.38469606     -0.00275860     -0.01985708      0.01358420
    2
 MD step:         550 time   1.3303863795777500     
 H      0.00445101     -0.01857366     -0.35351346      0.00335643     -0.01395069      0.01076017
 H     -0.00365971     -0.02640766      0.38636039     -0.00276164     -0.01986002      0.01392959
    2
 MD step:         600 time   1.4513305959030001     
 H      0.00485710     -0.02026077     -0.35222573      0.00335867     -0.01394853      0.01054263
 H     -0.00399386     -0.02880975      0.38805874     -0.00276388     -0.01986219      0.01414713
    2
 MD step:         650 time   1.5722748122282502     
 H      0.00526340     -0.02194768     -0.35095865      0.00336000     -0.01394724      0.01042739
 H     -0.00432823     -0.03121205      0.38977774     -0.00276521     -0.01986347      0.01426237
    2
 MD step:         700 time   1.6932190285535000     
 H      0.00566983     -0.02363446     -0.34970322      0.00336110     -0.01394618      0.01032689
 H     -0.00466273     -0.03361449      0.39150839     -0.00276631     -0.01986453      0.01436287
    2
 MD step:         750 time   1.8141632448787501     
 H      0.00607644     -0.02532107     -0.34846153      0.00336291     -0.01394443      0.01018095
 H     -0.00499739     -0.03601708      0.39325279     -0.00276812     -0.01986629      0.01450881
    2
 MD step:         800 time   1.9351074612040000     
 H      0.00648332     -0.02700741     -0.34724323      0.00336583     -0.01394161      0.00996178
 H     -0.00533234     -0.03841995      0.39502058     -0.00277104     -0.01986910      0.01472798
    2
 MD step:         850 time   2.0560516775292501     
 H      0.00689059     -0.02869339     -0.34605408      0.00336887     -0.01393867      0.00972123
 H     -0.00566767     -0.04082318      0.39681751     -0.00277409     -0.01987204      0.01496854
    2
 MD step:         900 time   2.1769958938545000     
 H      0.00729816     -0.03037907     -0.34488849      0.00337081     -0.01393680      0.00956223
 H     -0.00600331     -0.04322672      0.39863800     -0.00277602     -0.01987391      0.01512753
    2
 MD step:         950 time   2.2979401101797499     
 H      0.00770587     -0.03206462     -0.34373369      0.00337082     -0.01393679      0.00954713
 H     -0.00633908     -0.04563038      0.40046929     -0.00277603     -0.01987392      0.01514264
    2
 MD step:        1000 time   2.4188843265050002     
 H      0.00811346     -0.03375028     -0.34257539      0.00336920     -0.01393836      0.00962106
 H     -0.00667474     -0.04803393      0.40229707     -0.00277441     -0.01987236      0.01506871
    2
 MD step:        1050 time   2.5398285428302501     
 H      0.00852083     -0.03543616     -0.34140675      0.00336731     -0.01394018      0.00969151
 H     -0.00701016     -0.05043726      0.40411451     -0.00277252     -0.01987053      0.01499825
    2
 MD step:        1100 time   2.6607727591554999     
 H      0.00892802     -0.03712221     -0.34023220      0.00336650     -0.01394097      0.00970735
 H     -0.00734542     -0.05284042      0.40592605     -0.00277171     -0.01986975      0.01498241
    2
 MD step:        1150 time   2.7817169754807503     
 H      0.00933517     -0.03880830     -0.33906075      0.00336655     -0.01394091      0.00966915
 H     -0.00768063     -0.05524354      0.40774069     -0.00277177     -0.01986980      0.01502061
    2
 MD step:        1200 time   2.9026611918060001     
 H      0.00974232     -0.04049438     -0.33789511      0.00336629     -0.01394116      0.00962199
 H     -0.00801585     -0.05764667      0.40956113     -0.00277151     -0.01986955      0.01506778
    2
 MD step:        1250 time   3.0236054081312500     
 H      0.01014934     -0.04218059     -0.33672871      0.00336394     -0.01394344      0.00967556
 H     -0.00835093     -0.06004967      0.41138081     -0.00276915     -0.01986728      0.01501420
    2
 MD step:        1300 time   3.1445496244565003     
 H      0.01055590     -0.04386725     -0.33554750      0.00335871     -0.01394849      0.00987085
 H     -0.00868556     -0.06245222      0.41318568     -0.00276392     -0.01986223      0.01481892
    2
 MD step:        1350 time   3.2654938407817502     
 H      0.01096169     -0.04555465     -0.33433838      0.00335141     -0.01395554      0.01013663
 H     -0.00901941     -0.06485403      0.41496264     -0.00275662     -0.01985517      0.01455313
    2
 MD step:        1400 time   3.3864380571070001     
 H      0.01136656     -0.04724294     -0.33309600      0.00334387     -0.01396282      0.01039180
 H     -0.00935235     -0.06725495      0.41670636     -0.00274909     -0.01984790      0.01429797
    2
 MD step:        1450 time   3.5073822734322500     
 H      0.01177058     -0.04893205     -0.33182568      0.00333761     -0.01396887      0.01059400
 H     -0.00968443     -0.06965505      0.41842212     -0.00274282     -0.01984185      0.01409577
    2
 MD step:        1500 time   3.6283264897575003     
 H      0.01217393     -0.05062180     -0.33053706      0.00333283     -0.01397349      0.01071872
 H     -0.01001585     -0.07205451      0.42011958     -0.00273804     -0.01983723      0.01397105
    2
 MD step:        1550 time   3.7492707060827501     
 H      0.01257672     -0.05231211     -0.32923478      0.00332769     -0.01397845      0.01082792
 H     -0.01034670     -0.07445341      0.42180339     -0.00273290     -0.01983226      0.01386185
    2
 MD step:        1600 time   3.8702149224080000     
 H      0.01297877     -0.05400312     -0.32791349      0.00332032     -0.01398557      0.01102385
 H     -0.01067681     -0.07685161      0.42346818     -0.00272553     -0.01982514      0.01366591
    2
 MD step:        1650 time   3.9911591387332503     
 H      0.01337975     -0.05569517     -0.32656215      0.00330978     -0.01399575      0.01134003
 H     -0.01100585     -0.07924877      0.42510292     -0.00271499     -0.01981496      0.01334973
    2
 MD step:        1700 time   4.1121033550585002     
 H      0.01377926     -0.05738863     -0.32516826      0.00329663     -0.01400845      0.01172309
 H     -0.01133343     -0.08164452      0.42669512     -0.00270184     -0.01980226      0.01296668
    2
 MD step:        1750 time   4.2330475713837501     
 H      0.01417715     -0.05908366     -0.32372664      0.00328322     -0.01402141      0.01209992
 H     -0.01165938     -0.08403870      0.42823958     -0.00268843     -0.01978931      0.01258984
    2
 MD step:        1800 time   4.3539917877090000     
 H      0.01457352     -0.06078017     -0.32224339      0.00327187     -0.01403236      0.01240853
 H     -0.01198381     -0.08643140      0.42974241     -0.00267709     -0.01977835      0.01228123
    2
 MD step:        1850 time   4.4749360040342498     
 H      0.01496865     -0.06247786     -0.32073001      0.00326277     -0.01404115      0.01262008
 H     -0.01230701     -0.08882292      0.43121512     -0.00266798     -0.01976956      0.01206968
    2
 MD step:        1900 time   4.5958802203594997     
 H      0.01536277     -0.06417653     -0.31919393      0.00325461     -0.01404904      0.01277882
 H     -0.01262919     -0.09121346      0.43266513     -0.00265982     -0.01976168      0.01191094
    2
 MD step:        1950 time   4.7168244366847505     
 H      0.01575586     -0.06587620     -0.31763564      0.00324510     -0.01405822      0.01299069
 H     -0.01295035     -0.09360300      0.43409292     -0.00265031     -0.01975249      0.01169907
    2
 MD step:        2000 time   4.8377686530100004     
 H      0.01614761     -0.06757717     -0.31604673      0.00323234     -0.01407055      0.01330372
 H     -0.01327016     -0.09599125      0.43549009     -0.00263755     -0.01974016      0.01138605
    2
 MD step:        2050 time   4.9587128693352502     
 H      0.01653763     -0.06927980     -0.31441630      0.00321694     -0.01408542      0.01367245
 H     -0.01358824     -0.09837782      0.43684574     -0.00262215     -0.01972530      0.01101732
    2
 MD step:        2100 time   5.0796570856605001     
 H      0.01692574     -0.07098428     -0.31273944      0.00320134     -0.01410049      0.01404186
 H     -0.01390442     -0.10076256      0.43815497     -0.00260655     -0.01971023      0.01064791
    2
 MD step:        2150 time   5.2006013019857500     
 H      0.01731209     -0.07269045     -0.31102216      0.00318833     -0.01411306      0.01434125
 H     -0.01421884     -0.10314560      0.43942377     -0.00259354     -0.01969766      0.01034851
    2
 MD step:        2200 time   5.3215455183109999     
 H      0.01769711     -0.07439792     -0.30927706      0.00317922     -0.01412185      0.01451129
 H     -0.01453191     -0.10552734      0.44066476     -0.00258443     -0.01968886      0.01017847
    2
 MD step:        2250 time   5.4424897346362506     
 H      0.01808122     -0.07610625     -0.30751607      0.00317271     -0.01412814      0.01459999
 H     -0.01484409     -0.10790821      0.44188985     -0.00257792     -0.01968257      0.01008978
    2
 MD step:        2300 time   5.5634339509615005     
 H      0.01846457     -0.07781534     -0.30574303      0.00316590     -0.01413472      0.01471584
 H     -0.01515550     -0.11028834      0.44310290     -0.00257111     -0.01967600      0.00997392
    2
 MD step:        2350 time   5.6843781672867504     
 H      0.01884695     -0.07952535     -0.30395361      0.00315669     -0.01414361      0.01489808
 H     -0.01546595     -0.11266754      0.44429956     -0.00256190     -0.01966710      0.00979168
    2
 MD step:        2400 time   5.8053223836120003     
 H      0.01922802     -0.08123662     -0.30213821      0.00314465     -0.01415525      0.01513578
 H     -0.01577508     -0.11504548      0.44547024     -0.00254986     -0.01965547      0.00955399
    2
 MD step:        2450 time   5.9262665999372501     
 H      0.01960761     -0.08294933     -0.30029225      0.00313275     -0.01416674      0.01537584
 H     -0.01608273     -0.11742198      0.44661037     -0.00253796     -0.01964398      0.00931393
    2
 MD step:        2500 time   6.0472108162625000     
 H      0.01998594     -0.08466325     -0.29842235      0.00312458     -0.01417463      0.01553181
 H     -0.01638913     -0.11979727      0.44772655     -0.00252979     -0.01963608      0.00915795
    2
 MD step:        2550 time   6.1681550325877499     
 H      0.02036362     -0.08637781     -0.29654252      0.00312157     -0.01417754      0.01554700
 H     -0.01669487     -0.12217192      0.44883281     -0.00252678     -0.01963318      0.00914276
    2
 MD step:        2600 time   6.2890992489130007     
 H      0.02074119     -0.08809246     -0.29466557      0.00312243     -0.01417671      0.01547269
 H     -0.01700051     -0.12454648      0.44994194     -0.00252764     -0.01963401      0.00921707
    2
 MD step:        2650 time   6.4100434652382505     
 H      0.02111897     -0.08980692     -0.29279813      0.00312401     -0.01417518      0.01540846
 H     -0.01730634     -0.12692123      0.45106059     -0.00252922     -0.01963553      0.00928131
    2
 MD step:        2700 time   6.5309876815635004     
 H      0.02149676     -0.09152137     -0.29093592      0.00312277     -0.01417638      0.01541020
 H     -0.01761220     -0.12929599      0.45218446     -0.00252798     -0.01963433      0.00927956
    2
 MD step:        2750 time   6.6519318978887503     
 H      0.02187423     -0.09323611     -0.28906994      0.00311920     -0.01417983      0.01545606
 H     -0.01791774     -0.13167046      0.45330456     -0.00252441     -0.01963089      0.00923370
    2
 MD step:        2800 time   6.7728761142140002     
 H      0.02225129     -0.09495127     -0.28719724      0.00311658     -0.01418236      0.01549614
 H     -0.01822286     -0.13404451      0.45441794     -0.00252179     -0.01962836      0.00919362
    2
 MD step:        2850 time   6.8938203305392500     
 H      0.02262829     -0.09666648     -0.28532582      0.00311873     -0.01418028      0.01544037
 H     -0.01852793     -0.13641851      0.45553261     -0.00252394     -0.01963043      0.00924940
    2
 MD step:        2900 time   7.0147645468644999     
 H      0.02300593     -0.09838107     -0.28346977      0.00312710     -0.01417220      0.01524080
 H     -0.01883363     -0.13879313      0.45666264     -0.00253231     -0.01963852      0.00944896
    2
 MD step:        2950 time   7.1357087631897507     
 H      0.02338489     -0.10009439     -0.28164188      0.00313939     -0.01416033      0.01497196
 H     -0.01914065     -0.14116903      0.45782084     -0.00254460     -0.01965039      0.00971780
    2
 MD step:        3000 time   7.2566529795150005     
 H      0.02376532     -0.10180629     -0.27984508      0.00315085     -0.01414925      0.01474630
 H     -0.01944914     -0.14354634      0.45901012     -0.00255607     -0.01966146      0.00994346
    2
 MD step:        3050 time   7.3775971958402504     
 H      0.02414693     -0.10351703     -0.27807276      0.00315908     -0.01414131      0.01458704
 H     -0.01975882     -0.14592480      0.46022389     -0.00256429     -0.01966941      0.01010272
    2
 MD step:        3100 time   7.4985414121655003     
 H      0.02452936     -0.10522700     -0.27631564      0.00316494     -0.01413565      0.01447184
 H     -0.02006932     -0.14830404      0.46145286     -0.00257015     -0.01967507      0.01021792
    2
 MD step:        3150 time   7.6194856284907502     
 H      0.02491259     -0.10693620     -0.27457283      0.00317304     -0.01412782      0.01433126
 H     -0.02038060     -0.15068406      0.46269613     -0.00257825     -0.01968289      0.01035850
    2
 MD step:        3200 time   7.7404298448160000     
 H      0.02529713     -0.10864412     -0.27285438      0.00318722     -0.01411412      0.01407725
 H     -0.02069321     -0.15306534      0.46396376     -0.00259243     -0.01969659      0.01061251
    2
 MD step:        3250 time   7.8613740611412499     
 H      0.02568376     -0.11035002     -0.27117385      0.00320689     -0.01409513      0.01370858
 H     -0.02100791     -0.15544865      0.46526931     -0.00261210     -0.01971558      0.01098118
    2
 MD step:        3300 time   7.9823182774665007     
 H      0.02607291     -0.11205350     -0.26953802      0.00322780     -0.01407494      0.01333328
 H     -0.02132512     -0.15783438      0.46661957     -0.00263301     -0.01973578      0.01135649
    2
 MD step:        3350 time   8.1032624937917497     
 H      0.02646443     -0.11375468     -0.26794412      0.00324548     -0.01405786      0.01304017
 H     -0.02164470     -0.16022241      0.46801175     -0.00265069     -0.01975286      0.01164960
    2
 MD step:        3400 time   8.2242067101170004     
 H      0.02685775     -0.11545412     -0.26638078      0.00325806     -0.01404571      0.01283337
 H     -0.02196609     -0.16261218      0.46943450     -0.00266327     -0.01976501      0.01185640
    2
 MD step:        3450 time   8.3451509264422494     
 H      0.02725246     -0.11715223     -0.26483926      0.00326927     -0.01403488      0.01265078
 H     -0.02228886     -0.16500329      0.47087906     -0.00267448     -0.01977584      0.01203899
    2
 MD step:        3500 time   8.4660951427675002     
 H      0.02764871     -0.11884885     -0.26332224      0.00328435     -0.01402031      0.01241684
 H     -0.02261317     -0.16739587      0.47234813     -0.00268956     -0.01979041      0.01227293
    2
 MD step:        3550 time   8.5870393590927510     
 H      0.02804711     -0.12054338     -0.26184081      0.00330493     -0.01400044      0.01208199
 H     -0.02293964     -0.16979055      0.47385278     -0.00271014     -0.01981028      0.01260777
    2
 MD step:        3600 time   8.7079835754179999     
 H      0.02844823     -0.12223530     -0.26040342      0.00332832     -0.01397784      0.01168739
 H     -0.02326882     -0.17218785      0.47540148     -0.00273353     -0.01983287      0.01300238
    2
 MD step:        3650 time   8.8289277917432507     
 H      0.02885210     -0.12392456     -0.25901014      0.00334895     -0.01395792      0.01135622
 H     -0.02360075     -0.17458780      0.47699427     -0.00275416     -0.01985280      0.01333355
    2
 MD step:        3700 time   8.9498720080684997     
 H      0.02925804     -0.12561180     -0.25765024      0.00336273     -0.01394461      0.01115098
 H     -0.02393476     -0.17698976      0.47862046     -0.00276794     -0.01986611      0.01353879
    2
 MD step:        3750 time   9.0708162243937505     
 H      0.02966530     -0.12729779     -0.25631042      0.00337126     -0.01393636      0.01101909
 H     -0.02427008     -0.17939298      0.48026673     -0.00277647     -0.01987435      0.01367068
    2
 MD step:        3800 time   9.1917604407189994     
 H      0.03007351     -0.12898285     -0.25498462      0.00337970     -0.01392821      0.01088871
 H     -0.02460636     -0.18179713      0.48192701     -0.00278491     -0.01988250      0.01380106
    2
 MD step:        3850 time   9.3127046570442502     
 H      0.03048296     -0.13066672     -0.25367816      0.00339229     -0.01391605      0.01070210
 H     -0.02494387     -0.18420248      0.48360664     -0.00279750     -0.01989466      0.01398766
    2
 MD step:        3900 time   9.4336488733695010     
 H      0.03089421     -0.13234885     -0.25240038      0.00340914     -0.01389978      0.01043440
 H     -0.02528318     -0.18660956      0.48531494     -0.00281435     -0.01991093      0.01425536
    2
 MD step:        3950 time   9.5545930896947500     
 H      0.03130752     -0.13402899     -0.25115487      0.00342482     -0.01388464      0.01017094
 H     -0.02562455     -0.18901863      0.48705552     -0.00283003     -0.01992608      0.01451882
    2
 MD step:        4000 time   9.6755373060200007     
 H      0.03172237     -0.13570764     -0.24993407      0.00343386     -0.01387590      0.01002361
 H     -0.02596747     -0.19142919      0.48882079     -0.00283907     -0.01993481      0.01466615
    2
 MD step:        4050 time   9.7964815223452497     
 H      0.03213781     -0.13738572     -0.24872431      0.00343467     -0.01387512      0.01000354
 H     -0.02631097     -0.19384032      0.49059712     -0.00283988     -0.01993559      0.01468623
    2
 MD step:        4100 time   9.9174257386705005     
 H      0.03255296     -0.13906407     -0.24751245      0.00343024     -0.01387940      0.01004260
 H     -0.02665419     -0.19625118      0.49237135     -0.00283545     -0.01993132      0.01464717
    2
 MD step:        4150 time   10.038369954995749     
 H      0.03296758     -0.14074295     -0.24629501      0.00342664     -0.01388288      0.01006980
 H     -0.02699687     -0.19866151      0.49413998     -0.00283185     -0.01992784      0.01461997
    2
 MD step:        4200 time   10.159314171321000     
 H      0.03338201     -0.14242201     -0.24507883      0.00342785     -0.01388171      0.01003175
 H     -0.02733936     -0.20107166      0.49590989     -0.00283306     -0.01992901      0.01465801
    2
 MD step:        4250 time   10.280258387646251     
 H      0.03379677     -0.14410074     -0.24387190      0.00343117     -0.01387850      0.00993981
 H     -0.02768219     -0.20348214      0.49768904     -0.00283638     -0.01993221      0.01474995
    2
 MD step:        4300 time   10.401202603971500     
 H      0.03421181     -0.14577920     -0.24267366      0.00343141     -0.01387827      0.00987995
 H     -0.02802530     -0.20589289      0.49947689     -0.00283662     -0.01993244      0.01480981
    2
 MD step:        4350 time   10.522146820296751     
 H      0.03462647     -0.14745804     -0.24147538      0.00342361     -0.01388581      0.00994707
 H     -0.02836802     -0.20830326      0.50126469     -0.00282882     -0.01992491      0.01474269
    2
 MD step:        4400 time   10.643091036622000     
 H      0.03503958     -0.14913837     -0.24026218      0.00340651     -0.01390232      0.01013678
 H     -0.02870919     -0.21071214      0.50303757     -0.00281172     -0.01990839      0.01455298
    2
 MD step:        4450 time   10.764035252947250     
 H      0.03545028     -0.15082103     -0.23902218      0.00338474     -0.01392335      0.01037048
 H     -0.02904795     -0.21311869      0.50478366     -0.00278995     -0.01988737      0.01431928
    2
 MD step:        4500 time   10.884979469272501     
 H      0.03585839     -0.15250619     -0.23775384      0.00336484     -0.01394257      0.01058240
 H     -0.02938413     -0.21552274      0.50650141     -0.00277005     -0.01986815      0.01410736
    2
 MD step:        4550 time   11.005923685597750     
 H      0.03626435     -0.15419342     -0.23646484      0.00334964     -0.01395725      0.01072888
 H     -0.02971816     -0.21792472      0.50819849     -0.00275485     -0.01985346      0.01396088
    2
 MD step:        4600 time   11.126867901923001     
 H      0.03666871     -0.15588221     -0.23516292      0.00333766     -0.01396882      0.01080690
 H     -0.03005058     -0.22032515      0.50988265     -0.00274287     -0.01984189      0.01388287
    2
 MD step:        4650 time   11.247812118248250     
 H      0.03707158     -0.15757243     -0.23384962      0.00332304     -0.01398294      0.01091347
 H     -0.03038151     -0.22272413      0.51155543     -0.00272826     -0.01982778      0.01377629
    2
 MD step:        4700 time   11.368756334573501     
 H      0.03747223     -0.15926479     -0.23251678      0.00330047     -0.01400474      0.01113765
 H     -0.03071023     -0.22512098      0.51320869     -0.00270568     -0.01980597      0.01355211
    2
 MD step:        4750 time   11.489700550898750     
 H      0.03786961     -0.16096033     -0.23115160      0.00326929     -0.01403486      0.01146217
 H     -0.03103566     -0.22751466      0.51482959     -0.00267450     -0.01977586      0.01322759
    2
 MD step:        4800 time   11.610644767224001     
 H      0.03826284     -0.16265985     -0.22974302      0.00323322     -0.01406970      0.01183149
 H     -0.03135696     -0.22990434      0.51640709     -0.00263843     -0.01974101      0.01285827
    2
 MD step:        4850 time   11.731588983549251     
 H      0.03865176     -0.16436355     -0.22828977      0.00319915     -0.01410260      0.01218224
 H     -0.03167394     -0.23228986      0.51793993     -0.00260436     -0.01970811      0.01250752
    2
 MD step:        4900 time   11.852533199874500     
 H      0.03903693     -0.16607087     -0.22680025      0.00317185     -0.01412898      0.01244354
 H     -0.03198717     -0.23467174      0.51943649     -0.00257706     -0.01968174      0.01224622
    2
 MD step:        4950 time   11.973477416199751     
 H      0.03941918     -0.16778101     -0.22528494      0.00314975     -0.01415032      0.01261581
 H     -0.03229749     -0.23705082      0.52090727     -0.00255496     -0.01966040      0.01207395
    2
 MD step:        5000 time   12.094421632525000     
 H      0.03979886     -0.16949363     -0.22374819      0.00312790     -0.01417142      0.01278867
 H     -0.03260523     -0.23942741      0.52235659     -0.00253312     -0.01963929      0.01190109
    2
 MD step:        5050 time   12.215365848850251     
 H      0.04017565     -0.17120904     -0.22218713      0.00310096     -0.01419745      0.01303993
 H     -0.03291009     -0.24180121      0.52378162     -0.00250617     -0.01961327      0.01164983
    2
 MD step:        5100 time   12.336310065175500     
 H      0.04054862     -0.17292814     -0.22059098      0.00306539     -0.01423180      0.01338064
 H     -0.03321112     -0.24417132      0.52517155     -0.00247060     -0.01957891      0.01130912
    2
 MD step:        5150 time   12.457254281500751     
 H      0.04091695     -0.17465172     -0.21894946      0.00302525     -0.01427057      0.01376529
 H     -0.03350751     -0.24653694      0.52651611     -0.00243046     -0.01954014      0.01092447
    2
 MD step:        5200 time   12.578198497826001     
 H      0.04128049     -0.17637993     -0.21726157      0.00298771     -0.01430683      0.01413103
 H     -0.03379912     -0.24889795      0.52781431     -0.00239292     -0.01950388      0.01055873
    2
 MD step:        5250 time   12.699142714151250     
 H      0.04163994     -0.17811209     -0.21553612      0.00295799     -0.01433554      0.01439749
 H     -0.03408664     -0.25125500      0.52907495     -0.00236320     -0.01947518      0.01029228
    2
 MD step:        5300 time   12.820086930476501     
 H      0.04199636     -0.17984718     -0.21378511      0.00293696     -0.01435585      0.01454597
 H     -0.03437112     -0.25360912      0.53031002     -0.00234217     -0.01945487      0.01014379
    2
 MD step:        5350 time   12.941031146801750     
 H      0.04235062     -0.18158435     -0.21201835      0.00292036     -0.01437188      0.01465825
 H     -0.03465344     -0.25596116      0.53152935     -0.00232557     -0.01943883      0.01003151
    2
 MD step:        5400 time   13.061975363127001     
 H      0.04270270     -0.18332363     -0.21023637      0.00290039     -0.01439117      0.01482341
 H     -0.03493358     -0.25831109      0.53273344     -0.00230560     -0.01941954      0.00986635
    2
 MD step:        5450 time   13.182919579452250     
 H      0.04305195     -0.18506564     -0.20843149      0.00287401     -0.01441665      0.01504851
 H     -0.03521090     -0.26065829      0.53391465     -0.00227923     -0.01939407      0.00964126
    2
 MD step:        5500 time   13.303863795777501     
 H      0.04339769     -0.18681105     -0.20659487      0.00284306     -0.01444655      0.01532249
 H     -0.03548470     -0.26300209      0.53506412     -0.00224827     -0.01936417      0.00936727
    2
 MD step:        5550 time   13.424808012102751     
 H      0.04373978     -0.18855997     -0.20472552      0.00281513     -0.01447353      0.01557791
 H     -0.03575485     -0.26534238      0.53618085     -0.00222034     -0.01933719      0.00911186
    2
 MD step:        5600 time   13.545752228428000     
 H      0.04407903     -0.19031164     -0.20283248      0.00279709     -0.01449095      0.01571720
 H     -0.03602218     -0.26767992      0.53727390     -0.00220230     -0.01931977      0.00897256
    2
 MD step:        5650 time   13.666696444753251     
 H      0.04441686     -0.19206468     -0.20093008      0.00279033     -0.01449747      0.01572467
 H     -0.03628807     -0.27001609      0.53835758     -0.00219555     -0.01931324      0.00896509
    2
 MD step:        5700 time   13.787640661078500     
 H      0.04475431     -0.19381809     -0.19902949      0.00278960     -0.01449818      0.01568801
 H     -0.03655358     -0.27235189      0.53944307     -0.00219481     -0.01931253      0.00900175
    2
 MD step:        5750 time   13.908584877403751     
 H      0.04509167     -0.19557159     -0.19713397      0.00278801     -0.01449972      0.01567479
 H     -0.03681900     -0.27468760      0.54053364     -0.00219322     -0.01931100      0.00901498
    2
 MD step:        5800 time   14.029529093729000     
 H      0.04542841     -0.19732568     -0.19523670      0.00277953     -0.01450791      0.01572272