    2
 MD step:           0 time   0.0000000000000000     
 H      0.00000000      0.00000000     -0.37000000     -0.00778203      0.02445301      0.01697261
 H      0.00000000      0.00000000      0.37000000     -0.02394642     -0.03853229      0.03506330
    2
 MD step:          50 time  0.12094421632525000     
 H     -0.00094133      0.00295732     -0.36795231     -0.00778401      0.02445125      0.01690396
 H     -0.00289604     -0.00466013      0.37424575     -0.02394444     -0.03853052      0.03513196
    2
 MD step:         100 time  0.24188843265050000     
 H     -0.00188241      0.00591490     -0.36590719     -0.00778056      0.02445431      0.01693195
 H     -0.00579233     -0.00932051      0.37849407     -0.02394789     -0.03853358      0.03510396
    2
 MD step:         150 time  0.36283264897575002     
 H     -0.00282233      0.00887348     -0.36385267     -0.00775964      0.02447275      0.01705913
 H     -0.00868979     -0.01398190      0.38273300     -0.02396881     -0.03855203      0.03497679
    2
 MD step:         200 time  0.48377686530100000     
 H     -0.00376044      0.01183337     -0.36177681     -0.00774659      0.02447975      0.01728521
 H     -0.01158905     -0.01864459      0.38695058     -0.02398186     -0.03855902      0.03475070
    2
 MD step:         250 time  0.60472108162625005     
 H     -0.00469571      0.01479507     -0.35966749     -0.00772941      0.02448574      0.01761241
 H     -0.01449115     -0.02330910      0.39113470     -0.02399904     -0.03856502      0.03442350
    2
 MD step:         300 time  0.72566529795150003     
 H     -0.00562944      0.01775658     -0.35751262     -0.00770316      0.02449433      0.01803752
 H     -0.01739480     -0.02797342      0.39527328     -0.02402529     -0.03857361      0.03399839
    2
 MD step:         350 time  0.84660951427675002     
 H     -0.00656057      0.02071810     -0.35530068     -0.00769716      0.02447500      0.01855547
 H     -0.02030104     -0.03263775      0.39935478     -0.02403129     -0.03855427      0.03348044
    2
 MD step:         400 time  0.96755373060200001     
 H     -0.00748847      0.02367927     -0.35302063     -0.00765402      0.02448392      0.01916378
 H     -0.02321051     -0.03730172      0.40336817     -0.02407443     -0.03856319      0.03287213
    2
 MD step:         450 time   1.0884979469272500     
 H     -0.00841373      0.02663834     -0.35066171     -0.00762607      0.02446772      0.01985829
 H     -0.02612262     -0.04196360      0.40730270     -0.02410238     -0.03854699      0.03217763
    2
 MD step:         500 time   1.2094421632525001     
 H     -0.00933372      0.02959671     -0.34821396     -0.00760678      0.02443219      0.02063197
 H     -0.02904001     -0.04662477      0.41114839     -0.02412167     -0.03851146      0.03140395
    2
 MD step:         550 time   1.3303863795777500     
 H     -0.01025076      0.03255069     -0.34566788     -0.00755192      0.02442047      0.02148443
 H     -0.03196034     -0.05128156      0.41489575     -0.02417653     -0.03849974      0.03055148
    2
 MD step:         600 time   1.4513305959030001     
 H     -0.01116449      0.03549919     -0.34301421     -0.00754869      0.02434479      0.02240904
 H     -0.03488398     -0.05593287      0.41853553     -0.02417976     -0.03842406      0.02962687
    2
 MD step:         650 time   1.5722748122282502     
 H     -0.01207329      0.03844233     -0.34024500     -0.00750329      0.02429913      0.02339282
 H     -0.03781255     -0.06057882      0.42205976     -0.02422516     -0.03837840      0.02864309
    2
 MD step:         700 time   1.6932190285535000     
 H     -0.01297983      0.04137599     -0.33735371     -0.00745569      0.02424342      0.02442838
 H     -0.04074338     -0.06521528      0.42546191     -0.02427276     -0.03832269      0.02760754
    2
 MD step:         750 time   1.8141632448787501     
 H     -0.01388000      0.04430275     -0.33433399     -0.00744843      0.02413447      0.02551485
 H     -0.04368059     -0.06984485      0.42873563     -0.02428002     -0.03821374      0.02652106
    2
 MD step:         800 time   1.9351074612040000     
 H     -0.01477549      0.04721937     -0.33118031     -0.00736828      0.02408598      0.02664180
 H     -0.04662247     -0.07446428      0.43187539     -0.02436017     -0.03816525      0.02539412
    2
 MD step:         850 time   2.0560516775292501     
 H     -0.01566767      0.05012302     -0.32788835     -0.00735477      0.02395868      0.02780210
 H     -0.04956767     -0.07907073      0.43487688     -0.02437368     -0.03803795      0.02423382
    2
 MD step:         900 time   2.1769958938545000     
 H     -0.01655291      0.05301579     -0.32445392     -0.00732330      0.02383674      0.02899553
 H     -0.05251980     -0.08366632      0.43773589     -0.02440515     -0.03791601      0.02304038
    2
 MD step:         950 time   2.2979401101797499     
 H     -0.01743603      0.05589146     -0.32087401     -0.00724932      0.02374646      0.03020543
 H     -0.05547404     -0.08824479      0.44044942     -0.02447912     -0.03782574      0.02183048
    2
 MD step:        1000 time   2.4188843265050002     
 H     -0.01831306      0.05875282     -0.31714763     -0.00725577      0.02356696      0.03141579
 H     -0.05843439     -0.09280896      0.44301649     -0.02447268     -0.03764624      0.02062012
    2
 MD step:        1050 time   2.5398285428302501     
 H     -0.01918319      0.06159955     -0.31327450     -0.00716480      0.02347509      0.03263289
 H     -0.06140163     -0.09735850      0.44543680     -0.02456365     -0.03755436      0.01940303
    2
 MD step:        1100 time   2.6607727591554999     
 H     -0.02005013      0.06442686     -0.30925430     -0.00711951      0.02332919      0.03384673
 H     -0.06437207     -0.10188861      0.44771004     -0.02460894     -0.03740846      0.01818919
    2
 MD step:        1150 time   2.7817169754807503     
 H     -0.02090768      0.06724000     -0.30508802     -0.00710445      0.02314663      0.03504580
 H     -0.06735188     -0.10640456      0.44983720     -0.02462400     -0.03722590      0.01699012
    2
 MD step:        1200 time   2.9026611918060001     
 H     -0.02176111      0.07003297     -0.30077746     -0.00699610      0.02305036      0.03623425
 H     -0.07033583     -0.11090033      0.45182009     -0.02473235     -0.03712963      0.01580166
    2
 MD step:        1250 time   3.0236054081312500     
 H     -0.02260903      0.07280637     -0.29632440     -0.00699913      0.02283823      0.03739870
 H     -0.07332528     -0.11537654      0.45366047     -0.02472932     -0.03691751      0.01463721
    2
 MD step:        1300 time   3.1445496244565003     
 H     -0.02344729      0.07556405     -0.29173277     -0.00691669      0.02271068      0.03852168
 H     -0.07632439     -0.11983703      0.45536228     -0.02481176     -0.03678995      0.01351424
    2
 MD step:        1350 time   3.2654938407817502     
 H     -0.02428175      0.07830020     -0.28700832     -0.00682239      0.02259527      0.03959979
 H     -0.07932731     -0.12427598      0.45693127     -0.02490606     -0.03667455      0.01243612
    2
 MD step:        1400 time   3.3864380571070001     
 H     -0.02510479      0.08102234     -0.28215567     -0.00681541      0.02239242      0.04063817
 H     -0.08234164     -0.12870093      0.45837207     -0.02491304     -0.03647170      0.01139774
    2
 MD step:        1450 time   3.5073822734322500     
 H     -0.02591920      0.08372785     -0.27718029     -0.00667163      0.02232875      0.04162736
 H     -0.08536460     -0.13310925      0.45969013     -0.02505682     -0.03640803      0.01040856
    2
 MD step:        1500 time   3.6283264897575003     
 H     -0.02672726      0.08641495     -0.27208890     -0.00663394      0.02216379      0.04255936
 H     -0.08839391     -0.13749915      0.46089218     -0.02509451     -0.03624307      0.00947655
    2
 MD step:        1550 time   3.7492707060827501     
 H     -0.02752156      0.08909149     -0.26688766     -0.00656657      0.02203280      0.04344010
 H     -0.09143699     -0.14187850      0.46198439     -0.02516188     -0.03611208      0.00859581
    2
 MD step:        1600 time   3.8702149224080000     
 H     -0.02830937      0.09175108     -0.26158410     -0.00641352      0.02199718      0.04424954
 H     -0.09448655     -0.14624090      0.46297427     -0.02531493     -0.03607645      0.00778637
    2
 MD step:        1650 time   3.9911591387332503     
 H     -0.02908403      0.09440185     -0.25618780     -0.00639136      0.02184473      0.04497387
 H     -0.09754927     -0.15059447      0.46387141     -0.02533709     -0.03592400      0.00706205
    2
 MD step:        1700 time   4.1121033550585002     
 H     -0.02984351      0.09704727     -0.25070778     -0.00622171      0.02184945      0.04563585
 H     -0.10062715     -0.15494270      0.46468484     -0.02550674     -0.03592872      0.00640006
    2
 MD step:        1750 time   4.2330475713837501     
 H     -0.03059375      0.09968271     -0.24515181     -0.00610775      0.02181074      0.04622912
 H     -0.10371428     -0.15928094      0.46542231     -0.02562070     -0.03589001      0.00580679
    2
 MD step:        1800 time   4.3539917877090000     
 H     -0.03132492      0.10231970     -0.23952877     -0.00604058      0.02174151      0.04674269
 H     -0.10682049     -0.16362074      0.46609271     -0.02568787     -0.03582078      0.00529322
    2
 MD step:        1850 time   4.4749360040342498     
 H     -0.03204322      0.10495401     -0.23384812     -0.00582220      0.02183888      0.04718432
 H     -0.10993956     -0.16795786      0.46670551     -0.02590625     -0.03591815      0.00485160
    2
 MD step:        1900 time   4.5958802203594997     
 H     -0.03274585      0.10759044     -0.22811871     -0.00575159      0.02180736      0.04754584
 H     -0.11307431     -0.17229709      0.46726954     -0.02597686     -0.03588663      0.00449007
    2
 MD step:        1950 time   4.7168244366847505     
 H     -0.03342540      0.11023895     -0.22235095     -0.00556466      0.02191525      0.04781735
 H     -0.11623213     -0.17664841      0.46779522     -0.02616379     -0.03599453      0.00421856
    2
 MD step:        2000 time   4.8377686530100004     
 H     -0.03408999      0.11289415     -0.21655517     -0.00534868      0.02207158      0.04801625
 H     -0.11940490     -0.18100642      0.46829288     -0.02637977     -0.03615086      0.00401966
    2
 MD step:        2050 time   4.9587128693352502     
 H     -0.03472974      0.11556787     -0.21073861     -0.00525958      0.02211657      0.04815911
 H     -0.12260253     -0.18538295      0.46876976     -0.02646887     -0.03619585      0.00387680
    2
 MD step:        2100 time   5.0796570856605001     
 H     -0.03534738      0.11825960     -0.20490892     -0.00498075      0.02237272      0.04823061
 H     -0.12582226     -0.18977748      0.46923352     -0.02674770     -0.03645199      0.00380530
    2
 MD step:        2150 time   5.2006013019857500     
 H     -0.03594505      0.12097004     -0.19907531     -0.00482226      0.02253267      0.04822630
 H     -0.12906196     -0.19419073      0.46969335     -0.02690619     -0.03661194      0.00380961
    2
 MD step:        2200 time   5.3215455183109999     
 H     -0.03651104      0.12371352     -0.19324572     -0.00462484      0.02275054      0.04816570
 H     -0.13233335     -0.19863701      0.47015720     -0.02710361     -0.03682981      0.00387021
    2
 MD step:        2250 time   5.4424897346362506     
 H     -0.03705428      0.12648343     -0.18742689     -0.00430396      0.02311210      0.04804834
 H     -0.13562748     -0.20310973      0.47063181     -0.02742449     -0.03719138      0.00398758
    2
 MD step:        2300 time   5.5634339509615005     
 H     -0.03756733      0.12928958     -0.18162529     -0.00416587      0.02330851      0.04788456
 H     -0.13895180     -0.20761869      0.47112366     -0.02756258     -0.03738779      0.00415136
    2
 MD step:        2350 time   5.6843781672867504     
 H     -0.03804774      0.13213611     -0.17584511     -0.00384853      0.02369471      0.04769634
 H     -0.14230877     -0.21216803      0.47163692     -0.02787992     -0.03777398      0.00433957
    2
 MD step:        2400 time   5.8053223836120003     
 H     -0.03850336      0.13501655     -0.17008951     -0.00358488      0.02404216      0.04747345
 H     -0.14569052     -0.21675127      0.47217476     -0.02814357     -0.03812143      0.00456246
    2
 MD step:        2450 time   5.9262665999372501     
 H     -0.03892018      0.13794710     -0.16436357     -0.00338124      0.02434817      0.04720824
 H     -0.14911107     -0.22138463      0.47274227     -0.02834721     -0.03842744      0.00482768
    2
 MD step:        2500 time   6.0472108162625000     
 H     -0.03930530      0.14092230     -0.15867079     -0.00297743      0.02486116      0.04693267
 H     -0.15256332     -0.22606264      0.47334293     -0.02875102     -0.03894044      0.00510324
    2
 MD step:        2550 time   6.1681550325877499     
 H     -0.03965734      0.14394368     -0.15301060     -0.00278078      0.02516558      0.04666769
 H     -0.15604866     -0.23078683      0.47397618     -0.02894767     -0.03924486      0.00536822
    2
 MD step:        2600 time   6.2890992489130007     
 H     -0.03996825      0.14701941     -0.14738251     -0.00246293      0.02559449      0.04640161
 H     -0.15957512     -0.23556536      0.47464154     -0.02926552     -0.03967377      0.00563430
    2
 MD step:        2650 time   6.4100434652382505     
 H     -0.04025004      0.15013779     -0.14178641     -0.00209935      0.02606950      0.04614137
 H     -0.16313070     -0.24038655      0.47533888     -0.02962910     -0.04014878      0.00589454
    2
 MD step:        2700 time   6.5309876815635004     
 H     -0.04049016      0.15331092     -0.13622049     -0.00190784      0.02636597      0.04590237
 H     -0.16672795     -0.24526248      0.47606640     -0.02982061     -0.04044525      0.00613354
    2
 MD step:        2750 time   6.6519318978887503     
 H     -0.04069180      0.15653496     -0.13068252     -0.00147301      0.02690077      0.04568037
 H     -0.17036369     -0.25018933      0.47682187     -0.03025544     -0.04098004      0.00635554
    2
 MD step:        2800 time   6.7728761142140002     
 H     -0.04086073      0.15980304     -0.12516942     -0.00121423      0.02724429      0.04549672
 H     -0.17403213     -0.25516022      0.47760221     -0.03051421     -0.04132357      0.00653919
    2
 MD step:        2850 time   6.8938203305392500     
 H     -0.04098464      0.16312478     -0.11967483     -0.00095045      0.02756617      0.04537387
 H     -0.17774559     -0.26018476      0.47840107     -0.03077800     -0.04164544      0.00666205
    2
 MD step:        2900 time   7.0147645468644999     
 H     -0.04107805      0.16648290     -0.11419253     -0.00052683      0.02803083      0.04528919
 H     -0.18148956     -0.26524569      0.47921221     -0.03120162     -0.04211010      0.00674672
    2
 MD step:        2950 time   7.1357087631897507     
 H     -0.04113277      0.16988393     -0.10871883     -0.00035638      0.02822885      0.04523363
 H     -0.18527221     -0.27034953      0.48003196     -0.03137207     -0.04230813      0.00680229
    2
 MD step:        3000 time   7.2566529795150005     
 H     -0.04114550      0.17332850     -0.10324826      0.00003876      0.02861939      0.04524254
 H     -0.18909685     -0.27549690      0.48085483     -0.03176721     -0.04269866      0.00679338
    2
 MD step:        3050 time   7.3775971958402504     
 H     -0.04113034      0.17679831     -0.09777257      0.00034514      0.02888650      0.04531773
 H     -0.19294938     -0.28066952      0.48167258     -0.03207359     -0.04296577      0.00671818
    2
 MD step:        3100 time   7.4985414121655003     
 H     -0.04107231      0.18030431     -0.09228425      0.00051674      0.02898827      0.04544845
 H     -0.19684478     -0.28587833      0.48247771     -0.03224519     -0.04306755      0.00658747
    2
 MD step:        3150 time   7.6194856284907502     
 H     -0.04098416      0.18382971     -0.08677610      0.00094736      0.02930846      0.04565038
 H     -0.20077031     -0.29110653      0.48326299     -0.03267581     -0.04338774      0.00638553
    2
 MD step:        3200 time   7.7404298448160000     
 H     -0.04086657      0.18736908     -0.08124001      0.00108818      0.02930636      0.04590582
 H     -0.20472527     -0.29634871      0.48402035     -0.03281663     -0.04338563      0.00613009
    2
 MD step:        3250 time   7.8613740611412499     
 H     -0.04070813      0.19093017     -0.07567011      0.00138075      0.02942818      0.04620406
 H     -0.20872108     -0.30161260      0.48474389     -0.03310920     -0.04350745      0.00583186
    2
 MD step:        3300 time   7.9823182774665007     
 H     -0.04052766      0.19449072     -0.07006128      0.00173193      0.02956796      0.04656471
 H     -0.21273893     -0.30687596      0.48542850     -0.03346038     -0.04364724      0.00547120
    2
 MD step:        3350 time   8.1032624937917497     
 H     -0.04031174      0.19805799     -0.06440399      0.00179366      0.02937074      0.04699665
 H     -0.21679222     -0.31214604      0.48606466     -0.03352211     -0.04345001      0.00503927
    2
 MD step:        3400 time   8.2242067101170004     
 H     -0.04006722      0.20161965     -0.05869032      0.00217663      0.02944974      0.04749228
 H     -0.22087411     -0.31741051      0.48664443     -0.03390508     -0.04352902      0.00454363
    2
 MD step:        3450 time   8.3451509264422494     
 H     -0.03980454      0.20516146     -0.05291538      0.00232060      0.02926265      0.04801986
 H     -0.22497416     -0.32265513      0.48716294     -0.03404905     -0.04334193      0.00401605
    2
 MD step:        3500 time   8.4660951427675002     
 H     -0.03950551      0.20869646     -0.04707243      0.00245880      0.02902783      0.04860121
 H     -0.22911057     -0.32789293      0.48761342     -0.03418725     -0.04310710      0.00343470
    2
 MD step:        3550 time   8.5870393590927510     
 H     -0.03919050      0.21220060     -0.04115733      0.00283758      0.02899821      0.04922336
 H     -0.23326294     -0.33309988      0.48799177     -0.03456603     -0.04307748      0.00281255
    2
 MD step:        3600 time   8.7079835754179999     
 H     -0.03884983      0.21568028     -0.03516671      0.00283662      0.02857715      0.04984906
 H     -0.23744099     -0.33828237      0.48829460     -0.03456506     -0.04265642      0.00218685
    2
 MD step:        3650 time   8.8289277917432507     
 H     -0.03847919      0.21913502     -0.02909526      0.00313329      0.02839126      0.05055190
 H     -0.24164900     -0.34343991      0.48851658     -0.03486174     -0.04247053      0.00148401
    2
 MD step:        3700 time   8.9498720080684997     
 H     -0.03810011      0.22253853     -0.02293789      0.00332541      0.02806689      0.05128720
 H     -0.24586545     -0.34854622      0.48865265     -0.03505386     -0.04214617      0.00074871
    2
 MD step:        3750 time   9.0708162243937505     
 H     -0.03769034      0.22590844     -0.01669000      0.00331960      0.02753364      0.05202167
 H     -0.25011260     -0.35361895      0.48869821     -0.03504805     -0.04161291      0.00001425
    2
 MD step:        3800 time   9.1917604407189994     
 H     -0.03726570      0.22922704     -0.01035103      0.00370172      0.02733623      0.05281042
 H     -0.25437461     -0.35864035      0.48865268     -0.03543017     -0.04141550     -0.00077451
    2
 MD step:        3850 time   9.3127046570442502     
 H     -0.03682747      0.23248953     -0.00391822      0.00368561      0.02674468      0.05357605
 H     -0.25865021     -0.36360564      0.48851332     -0.03541406     -0.04082395     -0.00154013
    2
 MD step:        3900 time   9.4336488733695010     
 H     -0.03635735      0.23571157      0.00260973      0.00387604      0.02634045      0.05434984
 H     -0.26295770     -0.36853049      0.48827881     -0.03560449     -0.04041972     -0.00231393
    2
 MD step:        3950 time   9.5545930896947500     
 H     -0.03588039      0.23886931      0.00922917      0.00418880      0.02603314      0.05513790
 H     -0.26727204     -0.37339104      0.48795281     -0.03591725     -0.04011242     -0.00310199
    2
 MD step:        4000 time   9.6755373060200007     
 H     -0.03537615      0.24197798      0.01594456      0.00410083      0.02532779      0.05590508
 H     -0.27161365     -0.37820252      0.48753086     -0.03582928     -0.03940707     -0.00386916
    2
 MD step:        4050 time   9.7964815223452497     
 H     -0.03485041      0.24502985      0.02275612      0.00448121      0.02503682      0.05672032
 H     -0.27597677     -0.38295720      0.48701274     -0.03620966     -0.03911609     -0.00468440
    2
 MD step:        4100 time   9.9174257386705005     
 H     -0.03431689      0.24801193      0.02966079      0.00456209      0.02447127      0.05748671
 H     -0.28034765     -0.38764208      0.48640152     -0.03629054     -0.03855054     -0.00545079
    2
 MD step:        4150 time   10.038369954995749     
 H     -0.03374856      0.25094634      0.03666212      0.00461652      0.02385884      0.05825962
 H     -0.28475336     -0.39227930      0.48569363     -0.03634497     -0.03793811     -0.00622371
    2
 MD step:        4200 time   10.159314171321000     
 H     -0.03317125      0.25380942      0.04375538      0.00504077      0.02358464      0.05904958
 H     -0.28916804     -0.39684519      0.48489382     -0.03676922     -0.03766392     -0.00701367
    2
 MD step:        4250 time   10.280258387646251     
 H     -0.03256976      0.25661699      0.05093778      0.00497893      0.02291256      0.05972347
 H     -0.29360690     -0.40135556      0.48400486     -0.03670738     -0.03699184     -0.00768756
    2
 MD step:        4300 time   10.401202603971500     
 H     -0.03193240      0.25938089      0.05820691      0.00534512      0.02260576      0.06044918
 H     -0.29808163     -0.40582227      0.48302917     -0.03707357     -0.03668504     -0.00841326
    2
 MD step:        4350 time   10.522146820296751     
 H     -0.03128422      0.26208004      0.06555652      0.00563603      0.02225431      0.06112411
 H     -0.30256719     -0.41022423      0.48197301     -0.03736448     -0.03633358     -0.00908820
    2
 MD step:        4400 time   10.643091036622000     
 H     -0.03059089      0.26474649      0.07298702      0.00566917      0.02171406      0.06171253
 H     -0.30709789     -0.41459348      0.48083595     -0.03739762     -0.03579333     -0.00967661
    2
 MD step:        4450 time   10.764035252947250     
 H     -0.02986912      0.26736889      0.08049083      0.00624918      0.02163077      0.06237549
 H     -0.31165703     -0.41891869      0.47962558     -0.03797763     -0.03571004     -0.01033958
    2
 MD step:        4500 time   10.884979469272501     
 H     -0.02912055      0.26994569      0.08806617      0.00633052      0.02115194      0.06292071
 H     -0.31624298     -0.42319830      0.47834368     -0.03805897     -0.03523121     -0.01088479
    2
 MD step:        4550 time   11.005923685597750     
 H     -0.02831764      0.27250247      0.09571296      0.00667491      0.02091985      0.06346832
 H     -0.32088326     -0.42745789      0.47699033     -0.03840336     -0.03499912     -0.01143240
    2
 MD step:        4600 time   11.126867901923001     
 H     -0.02748972      0.27502126      0.10341870      0.00724151      0.02090679      0.06400288
 H     -0.32554854     -0.43167948      0.47557803     -0.03896996     -0.03498607     -0.01196696
    2
 MD step:        4650 time   11.247812118248250     
 H     -0.02660651      0.27752877      0.11118517      0.00732438      0.02054765      0.06440024
 H     -0.33026913     -0.43588980      0.47410501     -0.03905283     -0.03462692     -0.01236433
    2
 MD step:        4700 time   11.368756334573501     
 H     -0.02566701      0.28003304      0.11900430      0.00806838      0.02076373      0.06486178
 H     -0.33504600     -0.44009687      0.47257932     -0.03979683     -0.03484300     -0.01282586
    2
 MD step:        4750 time   11.489700550898750     
 H     -0.02468182      0.28253677      0.12686333      0.00852184      0.02087190      0.06515390
 H     -0.33986856     -0.44430341      0.47101374     -0.04025029     -0.03495117     -0.01311799
    2
 MD step:        4800 time   11.610644767224001     
 H     -0.02360753      0.28508078      0.13476319      0.00898153      0.02103563      0.06539891
 H     -0.34478023     -0.44855023      0.46940731     -0.04070998     -0.03511490     -0.01336300
    2
 MD step:        4850 time   11.731588983549251     
 H     -0.02246763      0.28766049      0.14268729      0.01000634      0.02172326      0.06566786
 H     -0.34975750     -0.45283274      0.46777666     -0.04173479     -0.03580253     -0.01363194
    2
 MD step:        4900 time   11.852533199874500     
 H     -0.02123481      0.29031019      0.15062963      0.01050272      0.02221931      0.06566815
 H     -0.35482769     -0.45718524      0.46612777     -0.04223117     -0.03629859     -0.01363224
    2
 MD step:        4950 time   11.973477416199751     
 H     -0.01988214      0.29306582      0.15858248      0.01160733      0.02320097      0.06576171
 H     -0.36001774     -0.46164368      0.46446836     -0.04333578     -0.03728024     -0.01372580
    2
 MD step:        5000 time   12.094421632525000     
 H     -0.01842863      0.29593440      0.16652651      0.01277183      0.02446418      0.06568869
 H     -0.36530862     -0.46621508      0.46281777     -0.04450028     -0.03854345     -0.01365278
    2
 MD step:        5050 time   12.215365848850251     
 H     -0.01681502      0.29897687      0.17446089      0.01376110      0.02585980      0.06540567
 H     -0.37075960     -0.47096034      0.46117683     -0.04548955     -0.03993907     -0.01336976
    2
 MD step:        5100 time   12.336310065175500     
 H     -0.01503767      0.30223532      0.18235913      0.01562973      0.02801016      0.06521474
 H     -0.37637432     -0.47592160      0.45957203     -0.04735818     -0.04208943     -0.01317883
    2
 MD step:        5150 time   12.457254281500751     
 H     -0.01307189      0.30575847      0.19020706      0.01718574      0.03053135      0.06458412
 H     -0.38217748     -0.48114756      0.45801755     -0.04891419     -0.04461062     -0.01254821
    2
 MD step:        5200 time   12.578198497826001     
 H     -0.01084627      0.30964078      0.19799126      0.01935996      0.03369186      0.06396710
 H     -0.38824046     -0.48673268      0.45652679     -0.05108841     -0.04777113     -0.01193118
    2
 MD step:        5250 time   12.699142714151250     
 H     -0.00834492      0.31398137      0.20566312      0.02233079      0.03820861      0.06302914
 H     -0.39457918     -0.49277608      0.45514837     -0.05405924     -0.05228788     -0.01099322
    2
 MD step:        5300 time   12.820086930476501     
 H     -0.00547442      0.31889653      0.21321358      0.02527165      0.04360956      0.06160347
 H     -0.40128707     -0.49939404      0.45389136     -0.05700010     -0.05768883     -0.00956756
    2
 MD step:        5350 time   12.941031146801750     
 H     -0.00214010      0.32460433      0.22057664      0.02973002      0.05061214      0.06018349
 H     -0.40845875     -0.50680465      0.45282174     -0.06145847     -0.06469141     -0.00814757
    2
 MD step:        5400 time   13.061975363127001     
 H      0.00173580      0.33128137      0.22770726      0.03506805      0.06075802      0.05761512
 H     -0.41617202     -0.51518449      0.45198457     -0.06679650     -0.07483730     -0.00557920
    2
 MD step:        5450 time   13.182919579452250     
 H      0.00636282      0.33928337      0.23453736      0.04112353      0.07162040      0.05515823
 H     -0.42463642     -0.52488931      0.45144791     -0.07285198     -0.08569968     -0.00312231
    2
 MD step:        5500 time   13.303863795777501     
 H      0.01184004      0.34894327      0.24096474      0.05021790      0.08906569      0.05107093
 H     -0.43395101     -0.53625201      0.45131397     -0.08194634     -0.10314495      0.00096498
    2
 MD step:        5550 time   13.424808012102751     
 H      0.01841881      0.36069797      0.24691635      0.05811977      0.10511300      0.04726160
 H     -0.44436716     -0.54970952      0.45165580     -0.08984822     -0.11919227      0.00477431
    2
 MD step:        5600 time   13.545752228428000     
 H      0.02602950      0.37462708      0.25234651      0.06840954      0.12614957      0.04245938
 H     -0.45581521     -0.56534143      0.45251908     -0.10013799     -0.14022885      0.00957653
    2
 MD step:        5650 time   13.666696444753251     
 H      0.03494176      0.39114595      0.25721329      0.07806048      0.14553447      0.03829611
 H     -0.46856485     -0.58356311      0.45394575     -0.10978895     -0.15961376      0.01373980
    2
 MD step:        5700 time   13.787640661078500     
 H      0.04468395      0.40939086      0.26170395      0.08297467      0.15539091      0.03627181
 H     -0.48214441     -0.60351083      0.45574853     -0.11470314     -0.16947021      0.01576410
    2
 MD step:        5750 time   13.908584877403751     
 H      0.05508465      0.42876425      0.26600653      0.08880053      0.16487025      0.03484597
 H     -0.49638249     -0.62458703      0.45773939     -0.12052901     -0.17894955      0.01718995
    2
 MD step:        5800 time   14.029529093729000     
 H      0.06609010      0.44919170      0.27013736      0.09333867      0.17286510      0.03355185