    2
 MD step:           0 time   0.0000000000000000     
 H      0.00000000      0.00000000     -0.37000000      0.05264718      0.01226077      0.01434929
 H      0.00000000      0.00000000      0.37000000      0.00137008     -0.04045616     -0.01171439
    2
 MD step:          50 time  0.12094421632525000     
 H      0.00636741      0.00148194     -0.36827764      0.05264836      0.01223091      0.01407428
 H      0.00016566     -0.00489201      0.36859631      0.00136891     -0.04042630     -0.01143939
    2
 MD step:         100 time  0.24188843265050000     
 H      0.01273524      0.00295970     -0.36660421      0.05265483      0.01221418      0.01353866
 H      0.00033091     -0.00977984      0.36724156      0.00136243     -0.04040956     -0.01090376
    2
 MD step:         150 time  0.36283264897575002     
 H      0.01910430      0.00443409     -0.36501125      0.05266853      0.01218878      0.01282600
 H      0.00049493     -0.01466429      0.36596728      0.00134873     -0.04038417     -0.01019110
    2
 MD step:         200 time  0.48377686530100000     
 H      0.02547535      0.00591000     -0.36350131      0.05268749      0.01220910      0.01214622
 H      0.00065695     -0.01955027      0.36477601      0.00132977     -0.04040449     -0.00951132
    2
 MD step:         250 time  0.60472108162625005     
 H      0.03184905      0.00738795     -0.36207147      0.05271321      0.01223082      0.01148099
 H      0.00081633     -0.02443829      0.36366485      0.00130405     -0.04042621     -0.00884609
    2
 MD step:         300 time  0.72566529795150003     
 H      0.03822667      0.00886823     -0.36073445      0.05275361      0.01223246      0.01057002
 H      0.00097178     -0.02932864      0.36264650      0.00126365     -0.04042785     -0.00793512
    2
 MD step:         350 time  0.84660951427675002     
 H      0.04461025      0.01034947     -0.35951908      0.05281102      0.01227378      0.00949854
 H      0.00112128     -0.03421995      0.36174981      0.00120624     -0.04046917     -0.00686364
    2
 MD step:         400 time  0.96755373060200001     
 H      0.05100139      0.01183569     -0.35843759      0.05287678      0.01232211      0.00843378
 H      0.00126322     -0.03911624      0.36098700      0.00114048     -0.04051750     -0.00579889
    2
 MD step:         450 time   1.0884979469272500     
 H      0.05740065      0.01333095     -0.35747558      0.05294587      0.01239900      0.00748149
 H      0.00139703     -0.04402157      0.36034366      0.00107139     -0.04059439     -0.00484660
    2
 MD step:         500 time   1.2094421632525001     
 H      0.06380894      0.01483372     -0.35663131      0.05302826      0.01245525      0.00646786
 H      0.00152181     -0.04893441      0.35981806      0.00098900     -0.04065063     -0.00383296
    2
 MD step:         550 time   1.3303863795777500     
 H      0.07022848      0.01634470     -0.35592051      0.05313133      0.01251585      0.00525712
 H      0.00163535     -0.05385546      0.35942594      0.00088594     -0.04071124     -0.00262222
    2
 MD step:         600 time   1.4513305959030001     
 H      0.07666113      0.01786494     -0.35535420      0.05324176      0.01262971      0.00411977
 H      0.00173578     -0.05878577      0.35917831      0.00077550     -0.04082510     -0.00148487
    2
 MD step:         650 time   1.5722748122282502     
 H      0.08310675      0.01939814     -0.35491701      0.05334495      0.01273089      0.00315573
 H      0.00182323     -0.06372904      0.35905979      0.00067231     -0.04092628     -0.00052083
    2
 MD step:         700 time   1.6932190285535000     
 H      0.08956466      0.02094407     -0.35458786      0.05344817      0.01283179      0.00227759
 H      0.00189839     -0.06868504      0.35904932      0.00056909     -0.04102718      0.00035730
    2
 MD step:         750 time   1.8141632448787501     
 H      0.09603585      0.02249971     -0.35437137      0.05356540      0.01290584      0.00131232
 H      0.00196028     -0.07365074      0.35915150      0.00045187     -0.04110123      0.00132258
    2
 MD step:         800 time   1.9351074612040000     
 H      0.10252170      0.02406702     -0.35427261      0.05368669      0.01299700      0.00033396
 H      0.00200751     -0.07862813      0.35937141      0.00033057     -0.04119239      0.00230094
    2
 MD step:         850 time   2.0560516775292501     
 H      0.10902117      0.02564622     -0.35427691      0.05378750      0.01311439     -0.00037434
 H      0.00204112     -0.08361739      0.35969439      0.00022976     -0.04130978      0.00300924
    2
 MD step:         900 time   2.1769958938545000     
 H      0.11553131      0.02723693     -0.35435491      0.05386562      0.01318523     -0.00089414
 H      0.00206404     -0.08861817      0.36009107      0.00015165     -0.04138062      0.00352904
    2
 MD step:         950 time   2.2979401101797499     
 H      0.12205047      0.02883515     -0.35449062      0.05394001      0.01324522     -0.00136794
 H      0.00207796     -0.09362647      0.36054545      0.00007726     -0.04144060      0.00400284
    2
 MD step:        1000 time   2.4188843265050002     
 H      0.12857878      0.03043788     -0.35468808      0.05401500      0.01327437     -0.00186409
 H      0.00208273     -0.09863926      0.36106159      0.00000226     -0.04146975      0.00449899
    2
 MD step:        1050 time   2.5398285428302501     
 H      0.13511506      0.03204647     -0.35493736      0.05406664      0.01330822     -0.00222664
 H      0.00207953     -0.10365792      0.36162955     -0.00004938     -0.04150361      0.00486154
    2
 MD step:        1100 time   2.6607727591554999     
 H      0.14165500      0.03365786     -0.35521127      0.05407432      0.01333145     -0.00227000
 H      0.00207266     -0.10867937      0.36222213     -0.00005706     -0.04152684      0.00490490
    2
 MD step:        1150 time   2.7817169754807503     
 H      0.14819359      0.03526835     -0.35547967      0.05404807      0.01328979     -0.00215742
 H      0.00206715     -0.11369994      0.36280920     -0.00003080     -0.04148518      0.00479232
    2
 MD step:        1200 time   2.9026611918060001     
 H      0.15472810      0.03687201     -0.35573009      0.05401013      0.01323253     -0.00199758
 H      0.00206571     -0.11871367      0.36337830      0.00000714     -0.04142792      0.00463248
    2
 MD step:        1250 time   3.0236054081312500     
 H      0.16125745      0.03846558     -0.35596417      0.05396015      0.01313216     -0.00183532
 H      0.00206943     -0.12371731      0.36393106      0.00005711     -0.04132755      0.00447022
    2
 MD step:        1300 time   3.1445496244565003     
 H      0.16777882      0.04004894     -0.35616876      0.05387288      0.01302849     -0.00152431
 H      0.00208114     -0.12871073      0.36445432      0.00014438     -0.04122388      0.00415921
    2
 MD step:        1350 time   3.2654938407817502     
 H      0.17428634      0.04161705     -0.35631840      0.05372927      0.01289681     -0.00091575
 H      0.00210670     -0.13368892      0.36492264      0.00028799     -0.04109220      0.00355065
    2
 MD step:        1400 time   3.3864380571070001     
 H      0.18077339      0.04316512     -0.35638393      0.05353862      0.01269240     -0.00015019
 H      0.00215272     -0.13864705      0.36530685      0.00047864     -0.04088779      0.00278508
    2
 MD step:        1450 time   3.5073822734322500     
 H      0.18723581      0.04468596     -0.35635156      0.05332618      0.01246076      0.00068021
 H      0.00222338     -0.14357796      0.36559315      0.00069108     -0.04065615      0.00195469
    2
 MD step:        1500 time   3.6283264897575003     
 H      0.19367188      0.04617571     -0.35622307      0.05310237      0.01217749      0.00146667
 H      0.00232038     -0.14847778      0.36578334      0.00091489     -0.04037288      0.00116823
    2
 MD step:        1550 time   3.7492707060827501     
 H      0.20007963      0.04763345     -0.35599434      0.05285167      0.01190344      0.00231619
 H      0.00244571     -0.15334559      0.36587329      0.00116559     -0.04009883      0.00031871
    2
 MD step:        1600 time   3.8702149224080000     
 H      0.20645420      0.04905476     -0.35565230      0.05255031      0.01160381      0.00338067
 H      0.00260422     -0.15817697      0.36584992      0.00146695     -0.03979920     -0.00074578
    2
 MD step:        1650 time   3.9911591387332503     
 H      0.21278865      0.05043628     -0.35517163      0.05219059      0.01123306      0.00460647
 H      0.00280284     -0.16296855      0.36568792      0.00182668     -0.03942845     -0.00197157
    2
 MD step:        1700 time   4.1121033550585002     
 H      0.21907691      0.05177055     -0.35453322      0.05179099      0.01082609      0.00595726
 H      0.00304766     -0.16771290      0.36536819      0.00222627     -0.03902148     -0.00332237
    2
 MD step:        1750 time   4.2330475713837501     
 H      0.22531585      0.05305248     -0.35373381      0.05137808      0.01036328      0.00726309
 H      0.00334179     -0.17240490      0.36488745      0.00263918     -0.03855867     -0.00462820
    2
 MD step:        1800 time   4.3539917877090000     
 H      0.23150480      0.05427981     -0.35277724      0.05096309      0.00991905      0.00852641
 H      0.00368592     -0.17704230      0.36424956      0.00305417     -0.03811444     -0.00589152
    2
 MD step:        1850 time   4.4749360040342498     
 H      0.23764266      0.05545028     -0.35166957      0.05053214      0.00945741      0.00981832
 H      0.00408113     -0.18162283      0.36346056      0.00348512     -0.03765280     -0.00718343
    2
 MD step:        1900 time   4.5958802203594997     
 H      0.24372597      0.05656459     -0.35040146      0.05005850      0.00895762      0.01117697
 H      0.00453090     -0.18614721      0.36251113      0.00395876     -0.03715301     -0.00854208
    2
 MD step:        1950 time   4.7168244366847505     
 H      0.24974905      0.05761771     -0.34895726      0.04953520      0.00844527      0.01270888
 H      0.00504089     -0.19061040      0.36138560      0.00448206     -0.03664066     -0.01007399
    2
 MD step:        2000 time   4.8377686530100004     
 H      0.25570655      0.05860467     -0.34732477      0.04897785      0.00787052      0.01429207
 H      0.00561647     -0.19500743      0.36007179      0.00503941     -0.03606591     -0.01165717
    2
 MD step:        2050 time   4.9587128693352502     
 H      0.26159597      0.05952139     -0.34550069      0.04841503      0.00728886      0.01584678
 H      0.00626012     -0.19933422      0.35856639      0.00560223     -0.03548425     -0.01321188
    2
 MD step:        2100 time   5.0796570856605001     
 H      0.26741799      0.06036555     -0.34349662      0.04786490      0.00668630      0.01729661
 H      0.00697118     -0.20358845      0.35688100      0.00615237     -0.03488169     -0.01466171
    2
 MD step:        2150 time   5.2006013019857500     
 H      0.27317432      0.06114006     -0.34132230      0.04732374      0.00610206      0.01864106
 H      0.00774792     -0.20777303      0.35502535      0.00669352     -0.03429745     -0.01600617
    2
 MD step:        2200 time   5.3215455183109999     
 H      0.27886499      0.06184460     -0.33898353      0.04677357      0.00555157      0.02003671
 H      0.00859033     -0.21188764      0.35300525      0.00724369     -0.03374695     -0.01740181
    2
 MD step:        2250 time   5.4424897346362506     
 H      0.28448723      0.06247971     -0.33647554      0.04619321      0.00495626      0.02147066
 H      0.00950116     -0.21593281      0.35081594      0.00782406     -0.03315165     -0.01883577
    2
 MD step:        2300 time   5.5634339509615005     
 H      0.29003749      0.06304324     -0.33378847      0.04558678      0.00435292      0.02295951
 H      0.01048398     -0.21990642      0.34844754      0.00843049     -0.03254831     -0.02032461
    2
 MD step:        2350 time   5.6843781672867504     
 H      0.29551421      0.06353173     -0.33092352      0.04498219      0.00372486      0.02440587
 H      0.01154033     -0.22380497      0.34590127      0.00903508     -0.03192025     -0.02177097
    2
 MD step:        2400 time   5.8053223836120003     
 H      0.30091958      0.06394615     -0.32789045      0.04441045      0.00312186      0.02570645
 H      0.01266804     -0.22762946      0.34318688      0.00960681     -0.03131725     -0.02307156
    2
 MD step:        2450 time   5.9262665999372501     
 H      0.30625824      0.06428830     -0.32470891      0.04388037      0.00256268      0.02689013
 H      0.01386246     -0.23138168      0.34032402      0.01013690     -0.03075807     -0.02425524
    2
 MD step:        2500 time   6.0472108162625000     
 H      0.31153435      0.06456475     -0.32139288      0.04337298      0.00201559      0.02795182
 H      0.01511942     -0.23506820      0.33732666      0.01064428     -0.03021098     -0.02531693
    2
 MD step:        2550 time   6.1681550325877499     
 H      0.31674938      0.06477911     -0.31794545      0.04286460      0.00151776      0.02903840
 H      0.01643747     -0.23869263      0.33419791      0.01115267     -0.02971315     -0.02640350
    2
 MD step:        2600 time   6.2890992489130007     
 H      0.32190264      0.06493164     -0.31436676      0.04235300      0.00101050      0.03014094
 H      0.01781729     -0.24225523      0.33093789      0.01166426     -0.02920589     -0.02750604
    2
 MD step:        2650 time   6.4100434652382505     
 H      0.32699499      0.06502357     -0.31065836      0.04186418      0.00051289      0.03115847
 H      0.01925800     -0.24575723      0.32754816      0.01215308     -0.02870827     -0.02852358
    2
 MD step:        2700 time   6.5309876815635004     
 H      0.33203144      0.06505641     -0.30683666      0.04143381      0.00005164      0.03201982
 H      0.02075464     -0.24920014      0.32404514      0.01258345     -0.02824702     -0.02938492
    2
 MD step:        2750 time   6.6519318978887503     
 H      0.33702023      0.06503821     -0.30292375      0.04107354     -0.00035328      0.03266176
 H      0.02229892     -0.25259201      0.32045090      0.01294373     -0.02784211     -0.03002686
    2
 MD step:        2800 time   6.7728761142140002     
 H      0.34196886      0.06497691     -0.29893736      0.04076319     -0.00065942      0.03323105
 H      0.02388336     -0.25594078      0.31678319      0.01325408     -0.02753597     -0.03059615
    2
 MD step:        2850 time   6.8938203305392500     
 H      0.34688150      0.06487916     -0.29488638      0.04047571     -0.00094137      0.03377328
 H      0.02550380     -0.25925309      0.31305089      0.01354155     -0.02725402     -0.03113838
    2
 MD step:        2900 time   7.0147645468644999     
 H      0.35176055      0.06474954     -0.29077147      0.04021290     -0.00119943      0.03426375
 H      0.02715782     -0.26253355      0.30925465      0.01380437     -0.02699596     -0.03162886
    2
 MD step:        2950 time   7.1357087631897507     
 H      0.35661119      0.06459046     -0.28660457      0.04001293     -0.00141870      0.03462108
 H      0.02884026     -0.26578453      0.30540643      0.01400433     -0.02677668     -0.03198618
    2
 MD step:        3000 time   7.2566529795150005     
 H      0.36144322      0.06441023     -0.28240729      0.03990646     -0.00156120      0.03474690
 H      0.03054131     -0.26901437      0.30152783      0.01411080     -0.02663419     -0.03211200
    2
 MD step:        3050 time   7.3775971958402504     
 H      0.36626767      0.06421926     -0.27820261      0.03988131     -0.00158433      0.03475571
 H      0.03224993     -0.27223346      0.29764182      0.01413595     -0.02661105     -0.03212082
    2
 MD step:        3100 time   7.4985414121655003     
 H      0.37109190      0.06402788     -0.27400264      0.03989816     -0.00156120      0.03471483
 H      0.03395878     -0.27545216      0.29376052      0.01411910     -0.02663418     -0.03207993
    2
 MD step:        3150 time   7.6194856284907502     
 H      0.37592009      0.06384266     -0.26980869      0.03995054     -0.00149864      0.03463165
 H      0.03566366     -0.27867700      0.28988525      0.01406672     -0.02669675     -0.03199675
    2
 MD step:        3200 time   7.7404298448160000     
 H      0.38075850      0.06366710     -0.26563171      0.04007490     -0.00139246      0.03441999
 H      0.03735832     -0.28191152      0.28602694      0.01394236     -0.02680293     -0.03178509
    2
 MD step:        3250 time   7.8613740611412499     
 H      0.38561812      0.06351050     -0.26149201      0.04030079     -0.00119576      0.03399901
 H      0.03903179     -0.28516499      0.28220592      0.01371648     -0.02699962     -0.03136412
    2
 MD step:        3300 time   7.9823182774665007     
 H      0.39051004      0.06338399     -0.25740864      0.04060146     -0.00088402      0.03350699
 H      0.04067294     -0.28844855      0.27844122      0.01341580     -0.02731136     -0.03087209
    2
 MD step:        3350 time   8.1032624937917497     
 H      0.39544058      0.06329728     -0.25338752      0.04093450     -0.00053676      0.03300525
 H      0.04227548     -0.29177190      0.27473878      0.01308276     -0.02765863     -0.03037036
    2
 MD step:        3400 time   8.2242067101170004     
 H      0.40041314      0.06325459     -0.24942759      0.04130323     -0.00016281      0.03246874
 H      0.04383599     -0.29513928      0.27109753      0.01271404     -0.02803257     -0.02983384
    2
 MD step:        3450 time   8.3451509264422494     
 H      0.40543458      0.06325917     -0.24554053      0.04174801      0.00025494      0.03179971
 H      0.04534762     -0.29855393      0.26752914      0.01226925     -0.02845033     -0.02916481
    2
 MD step:        3500 time   8.4660951427675002     
 H      0.41051474      0.06332051     -0.24174175      0.04226937      0.00075865      0.03100262
 H      0.04680054     -0.30202534      0.26404903      0.01174789     -0.02895403     -0.02836773
    2
 MD step:        3550 time   8.5870393590927510     
 H      0.41566002      0.06344694     -0.23803739      0.04281549      0.00133101      0.03024922
 H      0.04818833     -0.30556184      0.26066335      0.01120177     -0.02952640     -0.02761432
    2
 MD step:        3600 time   8.7079835754179999     
 H      0.42087111      0.06364141     -0.23442223      0.04335986      0.00188714      0.02953445
 H      0.04951032     -0.30916638      0.25736687      0.01065741     -0.03008252     -0.02689955
    2
 MD step:        3650 time   8.8289277917432507     
 H      0.42614935      0.06390309     -0.23089505      0.04393319      0.00245098      0.02877658
 H      0.05076515     -0.31283813      0.25415836      0.01008408     -0.03064636     -0.02614169
    2
 MD step:        3700 time   8.9498720080684997     
 H      0.43149990      0.06423431     -0.22746590      0.04455395      0.00304809      0.02794235
 H      0.05194768     -0.31657942      0.25104789      0.00946331     -0.03124347     -0.02530745
    2
 MD step:        3750 time   9.0708162243937505     
 H      0.43692634      0.06464138     -0.22413664      0.04517728      0.00367532      0.02712813
 H      0.05305432     -0.32039656      0.24803731      0.00883998     -0.03187071     -0.02449323
    2
 MD step:        3800 time   9.1917604407189994     
 H      0.44242580      0.06512347     -0.22089738      0.04575908      0.00428196      0.02643974
 H      0.05408793     -0.32428871      0.24511672      0.00825819     -0.03247734     -0.02380484
    2
 MD step:        3850 time   9.3127046570442502     
 H      0.44799363      0.06567489     -0.21773895      0.04631341      0.00482686      0.02577795
 H      0.05505318     -0.32825021      0.24227697      0.00770385     -0.03302225     -0.02314305
    2
 MD step:        3900 time   9.4336488733695010     
 H      0.45362863      0.06629135     -0.21466141      0.04687105      0.00537201      0.02510183
 H      0.05595125     -0.33227673      0.23951811      0.00714622     -0.03356740     -0.02246694
    2
 MD step:        3950 time   9.5545930896947500     
 H      0.45933022      0.06697258     -0.21166567      0.04740522      0.00590480      0.02447336
 H      0.05678274     -0.33636804      0.23684104      0.00661204     -0.03410019     -0.02183846
    2
 MD step:        4000 time   9.6755373060200007     
 H      0.46509245      0.06771664     -0.20873866      0.04786703      0.00638204      0.02396168
 H      0.05755359     -0.34052216      0.23423270      0.00615023     -0.03457743     -0.02132678
    2
 MD step:        4050 time   9.7964815223452497     
 H      0.47090537      0.06851309     -0.20586494      0.04824718      0.00676771      0.02356799
 H      0.05827374     -0.34472868      0.23167766      0.00577009     -0.03496310     -0.02093310
    2
 MD step:        4100 time   9.9174257386705005     
 H      0.47676119      0.06935143     -0.20303731      0.04858067      0.00707715      0.02318476
 H      0.05895100     -0.34897709      0.22916870      0.00543659     -0.03527254     -0.02054986
    2
 MD step:        4150 time   10.038369954995749     
 H      0.48265504      0.07022543     -0.20025322      0.04887253      0.00736793      0.02285256
 H      0.05959022     -0.35326115      0.22670329      0.00514473     -0.03556331     -0.02021766
    2
 MD step:        4200 time   10.159314171321000     
 H      0.48857995      0.07113039     -0.19750487      0.04908593      0.00759541      0.02263658
 H      0.06019838     -0.35757619      0.22427362      0.00493133     -0.03579079     -0.02000169
    2
 MD step:        4250 time   10.280258387646251     
 H      0.49452393      0.07205730     -0.19477426      0.04918691      0.00771045      0.02254874
 H      0.06078749     -0.36191317      0.22186168      0.00483036     -0.03590583     -0.01991384
    2
 MD step:        4300 time   10.401202603971500     
 H      0.50047400      0.07299107     -0.19204779      0.04919214      0.00770966      0.02254806
 H      0.06137049     -0.36625700      0.21945389      0.00482513     -0.03590504     -0.01991316
    2
 MD step:        4350 time   10.522146820296751     
 H      0.50642059      0.07391973     -0.18931982      0.04913326      0.00762603      0.02255918
 H      0.06195697     -0.37059574      0.21704460      0.00488400     -0.03582142     -0.01992428
    2
 MD step:        4400 time   10.643091036622000     
 H      0.51235667      0.07483587     -0.18658667      0.04901383      0.00751232      0.02263876
 H      0.06255397     -0.37492194      0.21463012      0.00500344     -0.03570771     -0.02000386
    2
 MD step:        4450 time   10.764035252947250     
 H      0.51827294      0.07573274     -0.18383955      0.04880076      0.00731528      0.02282777
 H      0.06317078     -0.37922888      0.21220168      0.00521650     -0.03551067     -0.02019288
    2
 MD step:        4500 time   10.884979469272501     
 H      0.52415657      0.07660010     -0.18106256      0.04847393      0.00700363      0.02311919
 H      0.06382022     -0.38350631      0.20974335      0.00554333     -0.03519902     -0.02048429
    2
 MD step:        4550 time   11.005923685597750     
 H      0.52999416      0.07742254     -0.17824442      0.04804483      0.00657363      0.02348739
 H      0.06451570     -0.38773882      0.20724390      0.00597243     -0.03476902     -0.02085249
    2
 MD step:        4600 time   11.126867901923001     
 H      0.53577555      0.07818762     -0.17538062      0.04754871      0.00605835      0.02386092
 H      0.06526739     -0.39191397      0.20469877      0.00646855     -0.03425373     -0.02122602
    2
 MD step:        4650 time   11.247812118248250     
 H      0.54149375      0.07888731     -0.17246990      0.04700064      0.00551057      0.02427215
 H      0.06608226     -0.39602373      0.20210672      0.00701662     -0.03370595     -0.02163726
    2
 MD step:        4700 time   11.368756334573501     
 H      0.54714200      0.07951695     -0.16950865      0.04638964      0.00490483      0.02473042
 H      0.06696709     -0.40006344      0.19946415      0.00762762     -0.03310022     -0.02209552
    2
 MD step:        4750 time   11.489700550898750     
 H      0.55271097      0.08007043     -0.16648618      0.04568786      0.00422440      0.02526159
 H      0.06793119     -0.40402699      0.19676036      0.00832940     -0.03241979     -0.02262669
    2
 MD step:        4800 time   11.610644767224001     
 H      0.55818938      0.08053584     -0.16339348      0.04489381      0.00345195      0.02587605
 H      0.06898586     -0.40790246      0.19398633      0.00912345     -0.03164734     -0.02324115
    2
 MD step:        4850 time   11.731588983549251     
 H      0.56356721      0.08090141     -0.16022579      0.04402908      0.00258293      0.02650058
 H      0.07014111     -0.41167810      0.19113732      0.00998818     -0.03077832     -0.02386568
    2
 MD step:        4900 time   11.852533199874500     
 H      0.56883782      0.08115815     -0.15698350      0.04312642      0.00166925      0.02711700
 H      0.07140357     -0.41534492      0.18821370      0.01089085     -0.02986463     -0.02448210
    2
 MD step:        4950 time   11.973477416199751     
 H      0.57399769      0.08130280     -0.15366895      0.04219845      0.00072568      0.02770815
 H      0.07277678     -0.41889964      0.18521783      0.01181882     -0.02892107     -0.02507325
    2
 MD step:        5000 time   12.094421632525000     
 H      0.57904361      0.08133472     -0.15027984      0.04123825     -0.00021445      0.02832391
 H      0.07426394     -0.42234162      0.18214740      0.01277901     -0.02798094     -0.02568902
    2
 MD step:        5050 time   12.215365848850251     
 H      0.58397085      0.08125037     -0.14681304      0.04022935     -0.00118497      0.02900973
 H      0.07586977     -0.42566734      0.17899927      0.01378791     -0.02701042     -0.02637483
    2
 MD step:        5100 time   12.336310065175500     
 H      0.58877257      0.08104398     -0.14326336      0.03916378     -0.00223501      0.02970594
 H      0.07760112     -0.42887102      0.17576826      0.01485348     -0.02596038     -0.02707105
    2
 MD step:        5150 time   12.457254281500751     
 H      0.59344266      0.08070760     -0.13962881      0.03805706     -0.00333937      0.03039514
 H      0.07946411     -0.43194471      0.17245239      0.01596020     -0.02485601     -0.02776024
    2
 MD step:        5200 time   12.578198497826001     
 H      0.59797778      0.08023561     -0.13591299      0.03693721     -0.00447374      0.03104079
 H      0.08146207     -0.43488278      0.16905524      0.01708005     -0.02372165     -0.02840589
    2
 MD step:        5250 time   12.699142714151250     
 H      0.60237820      0.07962780     -0.13212054      0.03583135     -0.00557704      0.03165547
 H      0.08359472     -0.43768504      0.16558148      0.01818591     -0.02261834     -0.02902057
    2
 MD step:        5300 time   12.820086930476501     
 H      0.60664586      0.07888707     -0.12825619      0.03474277     -0.00665220      0.03226286
 H      0.08586014     -0.44035438      0.16203580      0.01927449     -0.02154318     -0.02962796
    2
 MD step:        5350 time   12.941031146801750     
 H      0.61078213      0.07801825     -0.12431927      0.03365935     -0.00771674      0.03284863
 H      0.08825694     -0.44289563      0.15841755      0.02035792     -0.02047865     -0.03021373
    2
 MD step:        5400 time   13.061975363127001     
 H      0.61478666      0.07702154     -0.12030812      0.03256188     -0.00877586      0.03346370
 H      0.09078548     -0.44530900      0.15472507      0.02145538     -0.01941952     -0.03082881
    2
 MD step:        5450 time   13.182919579452250     
 H      0.61865788      0.07589397     -0.11622420      0.03145615     -0.00986707      0.03406365
 H      0.09344735     -0.44759149      0.15095984      0.02256111     -0.01832832     -0.03142876
    2
 MD step:        5500 time   13.303863795777501     
 H      0.62239599      0.07463388     -0.11207118      0.03036521     -0.01096228      0.03460691
 H      0.09624231     -0.44974147      0.14712549      0.02365205     -0.01723311     -0.03197201
    2
 MD step:        5550 time   13.424808012102751     
 H      0.62600464      0.07324318     -0.10785681      0.02932092     -0.01201944      0.03508492
 H      0.09916674     -0.45176084      0.14322979      0.02469634     -0.01617595     -0.03245003
    2
 MD step:        5600 time   13.545752228428000     
 H      0.62949087      0.07173044     -0.10358702      0.02833974     -0.01299496      0.03550700
 H      0.10221357     -0.45365817      0.13927868      0.02567752     -0.01520043     -0.03287210
    2
 MD step:        5650 time   13.666696444753251     
 H      0.63286227      0.07010484     -0.09926559      0.02741724     -0.01387607      0.03594277
 H      0.10537526     -0.45544263      0.13527593      0.02660002     -0.01431932     -0.03330787
    2
 MD step:        5700 time   13.787640661078500     
 H      0.63612489      0.06837426     -0.09489438      0.02653675     -0.01472956      0.03635953
 H      0.10864571     -0.45712212      0.13122339      0.02748051     -0.01346582     -0.03372463
    2
 MD step:        5750 time   13.908584877403751     
 H      0.63928259      0.06654241     -0.09047378      0.02568492     -0.01556772      0.03673681
 H      0.11202108     -0.45870035      0.12712146      0.02833235     -0.01262767     -0.03410192
    2
 MD step:        5800 time   14.029529093729000     
 H      0.64233989      0.06461069     -0.08600998      0.02488188     -0.01637389      0.03706243