    2
 MD step:           0 time   0.0000000000000000     
 H      0.00000000      0.00000000     -0.37000000     -0.00950020      0.03364245     -0.00724874
 H      0.00000000      0.00000000      0.37000000      0.01656983     -0.01333299      0.02663127
    2
 MD step:          50 time  0.12094421632525000     
 H     -0.00114906      0.00406886     -0.37088017     -0.00950274      0.03364246     -0.00728023
 H      0.00200409     -0.00161255      0.37322438      0.01657237     -0.01333300      0.02666276
    2
 MD step:         100 time  0.24188843265050000     
 H     -0.00229924      0.00813765     -0.37175489     -0.00951734      0.03364075     -0.00715598
 H      0.00400930     -0.00322503      0.37644330      0.01658697     -0.01333129      0.02653851
    2
 MD step:         150 time  0.36283264897575002     
 H     -0.00345047      0.01220599     -0.37260325     -0.00951760      0.03363462     -0.00684163
 H      0.00601556     -0.00483706      0.37963587      0.01658722     -0.01332516      0.02622416
    2
 MD step:         200 time  0.48377686530100000     
 H     -0.00460122      0.01627321     -0.37340300     -0.00951260      0.03362174     -0.00635860
 H      0.00802135     -0.00644796      0.38277982      0.01658223     -0.01331228      0.02574113
    2
 MD step:         250 time  0.60472108162625005     
 H     -0.00575196      0.02033835     -0.37413587     -0.00951652      0.03360010     -0.00573550
 H      0.01002711     -0.00805679      0.38585690      0.01658615     -0.01329064      0.02511803
    2
 MD step:         300 time  0.72566529795150003     
 H     -0.00690231      0.02440023     -0.37478336     -0.00950300      0.03356736     -0.00494377
 H      0.01203250     -0.00966236      0.38884859      0.01657263     -0.01325790      0.02432630
    2
 MD step:         350 time  0.84660951427675002     
 H     -0.00805023      0.02845740     -0.37532583     -0.00947949      0.03352197     -0.00400546
 H      0.01403545     -0.01126322      0.39173526      0.01654912     -0.01321251      0.02338799
    2
 MD step:         400 time  0.96755373060200001     
 H     -0.00919567      0.03250826     -0.37574790     -0.00946250      0.03346290     -0.00295537
 H      0.01603592     -0.01285777      0.39450154      0.01653213     -0.01315344      0.02233790
    2
 MD step:         450 time   1.0884979469272500     
 H     -0.01033824      0.03655107     -0.37603511     -0.00942730      0.03338847     -0.00177045
 H      0.01803352     -0.01444426      0.39713296      0.01649693     -0.01307901      0.02115298
    2
 MD step:         500 time   1.2094421632525001     
 H     -0.01147549      0.04058389     -0.37617137     -0.00937824      0.03329772     -0.00046637
 H      0.02002580     -0.01602077      0.39961342      0.01644787     -0.01298826      0.01984891
    2
 MD step:         550 time   1.3303863795777500     
 H     -0.01260697      0.04460475     -0.37614481     -0.00933350      0.03319073      0.00091764
 H      0.02201231     -0.01758532      0.40193106      0.01640313     -0.01288127      0.01846489
    2
 MD step:         600 time   1.4513305959030001     
 H     -0.01373244      0.04861165     -0.37594548     -0.00927279      0.03306662      0.00239684
 H      0.02399281     -0.01913591      0.40407594      0.01634242     -0.01275716      0.01698569
    2
 MD step:         650 time   1.5722748122282502     
 H     -0.01484930      0.05260247     -0.37556151     -0.00919538      0.03292496      0.00396370
 H      0.02596469     -0.02067042      0.40603618      0.01626501     -0.01261549      0.01541883
    2
 MD step:         700 time   1.6932190285535000     
 H     -0.01595680      0.05657514     -0.37498474     -0.00912003      0.03276662      0.00557974
 H      0.02792723     -0.02218678      0.40780361      0.01618966     -0.01245716      0.01380279
    2
 MD step:         750 time   1.8141632448787501     
 H     -0.01705488      0.06052769     -0.37420984     -0.00903351      0.03259211      0.00724605
 H      0.02988034     -0.02368301      0.40937291      0.01610314     -0.01228265      0.01213648
    2
 MD step:         800 time   1.9351074612040000     
 H     -0.01814113      0.06445813     -0.37322976     -0.00892884      0.03240111      0.00896648
 H      0.03182162     -0.02515714      0.41073704      0.01599847     -0.01209165      0.01041605
    2
 MD step:         850 time   2.0560516775292501     
 H     -0.01921471      0.06836453     -0.37204015     -0.00882499      0.03219495      0.01070644
 H      0.03375023     -0.02660723      0.41189164      0.01589462     -0.01188549      0.00867609
    2
 MD step:         900 time   2.1769958938545000     
 H     -0.02027560      0.07224518     -0.37063967     -0.00871461      0.03197538      0.01245694
 H      0.03566615     -0.02803156      0.41283536      0.01578424     -0.01166592      0.00692559
    2
 MD step:         950 time   2.2979401101797499     
 H     -0.02132187      0.07609848     -0.36902617     -0.00858699      0.03174285      0.01422422
 H      0.03756746     -0.02942855      0.41356606      0.01565661     -0.01143339      0.00515831
    2
 MD step:        1000 time   2.4188843265050002     
 H     -0.02235283      0.07992294     -0.36719955     -0.00846156      0.03149875      0.01597877
 H      0.03945344     -0.03079670      0.41408365      0.01553119     -0.01118929      0.00340376
    2
 MD step:        1050 time   2.5398285428302501     
 H     -0.02336852      0.08371731     -0.36516211     -0.00833214      0.03124576      0.01770990
 H      0.04132416     -0.03213476      0.41439042      0.01540177     -0.01093629      0.00167263
    2
 MD step:        1100 time   2.6607727591554999     
 H     -0.02436760      0.08748064     -0.36291654     -0.00818909      0.03098570      0.01941785
 H      0.04317828     -0.03344178      0.41448905      0.01525872     -0.01067624     -0.00003532
    2
 MD step:        1150 time   2.7817169754807503     
 H     -0.02534973      0.09121216     -0.36046721     -0.00805242      0.03071989      0.02107764
 H      0.04501544     -0.03471699      0.41438392      0.01512204     -0.01041043     -0.00169511
    2
 MD step:        1200 time   2.9026611918060001     
 H     -0.02631526      0.09491131     -0.35782018     -0.00791298      0.03045120      0.02268551
 H      0.04683600     -0.03595983      0.41408110      0.01498261     -0.01014174     -0.00330297
    2
 MD step:        1250 time   3.0236054081312500     
 H     -0.02726335      0.09857797     -0.35498217     -0.00776510      0.03018302      0.02423319
 H      0.04863912     -0.03717018      0.41358730      0.01483473     -0.00987355     -0.00485066
    2
 MD step:        1300 time   3.1445496244565003     
 H     -0.02819418      0.10221235     -0.35196211     -0.00762939      0.02991762      0.02569359
 H      0.05042497     -0.03834824      0.41291144      0.01469902     -0.00960816     -0.00631106
    2
 MD step:        1350 time   3.2654938407817502     
 H     -0.02910875      0.10581490     -0.34877036     -0.00749392      0.02965738      0.02707267
 H      0.05219458     -0.03949448      0.41206389      0.01456355     -0.00934792     -0.00769014
    2
 MD step:        1400 time   3.3864380571070001     
 H     -0.03000671      0.10938653     -0.34541732     -0.00735569      0.02940707      0.02835726
 H      0.05394757     -0.04060980      0.41105506      0.01442532     -0.00909761     -0.00897473
    2
 MD step:        1450 time   3.5073822734322500     
 H     -0.03088885      0.11292867     -0.34191615     -0.00723551      0.02917002      0.02951878
 H      0.05568474     -0.04169562      0.40989810      0.01430514     -0.00886056     -0.01013625
    2
 MD step:        1500 time   3.6283264897575003     
 H     -0.03175708      0.11644302     -0.33828148     -0.00712174      0.02894825      0.03056781
 H      0.05740799     -0.04275367      0.40860763      0.01419137     -0.00863879     -0.01118528
    2
 MD step:        1550 time   3.7492707060827501     
 H     -0.03261162      0.11993175     -0.33452712     -0.00701075      0.02874703      0.03149407
 H      0.05911757     -0.04378608      0.40719747      0.01408038     -0.00843757     -0.01211154
    2
 MD step:        1600 time   3.8702149224080000     
 H     -0.03345393      0.12339762     -0.33066971     -0.00692357      0.02857099      0.03226696
 H      0.06081491     -0.04479564      0.40568427      0.01399320     -0.00826153     -0.01288443
    2
 MD step:        1650 time   3.9911591387332503     
 H     -0.03428688      0.12684382     -0.32672775     -0.00685114      0.02842200      0.03289763
 H      0.06250289     -0.04578553      0.40408651      0.01392076     -0.00811254     -0.01351510
    2
 MD step:        1700 time   4.1121033550585002     
 H     -0.03511150      0.13027387     -0.32271804     -0.00678741      0.02830514      0.03338284
 H      0.06418254     -0.04675927      0.40242101      0.01385704     -0.00799568     -0.01400031
    2
 MD step:        1750 time   4.2330475713837501     
 H     -0.03592990      0.13369202     -0.31865993     -0.00675304      0.02822563      0.03369347
 H      0.06585598     -0.04772110      0.40070711      0.01382267     -0.00791617     -0.01431094
    2
 MD step:        1800 time   4.3539917877090000     
 H     -0.03674586      0.13710287     -0.31457442     -0.00674154      0.02818466      0.03384229
 H      0.06752696     -0.04867564      0.39896580      0.01381116     -0.00787520     -0.01445976
    2
 MD step:        1850 time   4.4749360040342498     
 H     -0.03756122      0.14051131     -0.31048032     -0.00674491      0.02818685      0.03383233
 H      0.06919735     -0.04962777      0.39721590      0.01381454     -0.00787738     -0.01444980
    2
 MD step:        1900 time   4.5958802203594997     
 H     -0.03837876      0.14392287     -0.30639813     -0.00678206      0.02823668      0.03364100
 H      0.07086992     -0.05058302      0.39547793      0.01385169     -0.00792722     -0.01425846
    2
 MD step:        1950 time   4.7168244366847505     
 H     -0.03920285      0.14734335     -0.30234959     -0.00684828      0.02833433      0.03328303
 H      0.07254904     -0.05154719      0.39377358      0.01391791     -0.00802487     -0.01390050
    2
 MD step:        2000 time   4.8377686530100004     
 H     -0.04003613      0.15077870     -0.29835379     -0.00693487      0.02848332      0.03276696
 H      0.07423735     -0.05252622      0.39212199      0.01400449     -0.00817386     -0.01338443
    2
 MD step:        2050 time   4.9587128693352502     
 H     -0.04088177      0.15423530     -0.29443052     -0.00705690      0.02868585      0.03208152
 H      0.07593803     -0.05352652      0.39054292      0.01412653     -0.00837638     -0.01269899
    2
 MD step:        2100 time   5.0796570856605001     
 H     -0.04174433      0.15771952     -0.29059957     -0.00721064      0.02893972      0.03124613
 H      0.07765561     -0.05455442      0.38905618      0.01428027     -0.00863025     -0.01186360
    2
 MD step:        2150 time   5.2006013019857500     
 H     -0.04262690      0.16123765     -0.28687806     -0.00738733      0.02924688      0.03027326
 H      0.07939322     -0.05561624      0.38767888      0.01445696     -0.00893742     -0.01089073
    2
 MD step:        2200 time   5.3215455183109999     
 H     -0.04353256      0.16479607     -0.28328221     -0.00759591      0.02960526      0.02916771
 H      0.08115391     -0.05671835      0.38642724      0.01466554     -0.00929580     -0.00978518
    2
 MD step:        2250 time   5.4424897346362506     
 H     -0.04446543      0.16840070     -0.27982721     -0.00783528      0.03001085      0.02794788
 H      0.08294181     -0.05786667      0.38531643      0.01490491     -0.00970139     -0.00856535
    2
 MD step:        2300 time   5.5634339509615005     
 H     -0.04542864      0.17205723     -0.27652582     -0.00809454      0.03046264      0.02663348
 H      0.08476005     -0.05906689      0.38435925      0.01516417     -0.01015318     -0.00725095
    2
 MD step:        2350 time   5.6843781672867504     
 H     -0.04642436      0.17577082     -0.27338791     -0.00837592      0.03095316      0.02524505
 H      0.08661080     -0.06032416      0.38356555      0.01544555     -0.01064370     -0.00586252
    2
 MD step:        2400 time   5.8053223836120003     
 H     -0.04745572      0.17954581     -0.27042186     -0.00868387      0.03147774      0.02379272
 H      0.08849719     -0.06164284      0.38294370      0.01575350     -0.01116828     -0.00441019
    2
 MD step:        2450 time   5.9262665999372501     
 H     -0.04852516      0.18338605     -0.26763384     -0.00900025      0.03203004      0.02231132
 H      0.09042166     -0.06302677      0.38249989      0.01606988     -0.01172058     -0.00292879
    2
 MD step:        2500 time   6.0472108162625000     
 H     -0.04963316      0.18729420     -0.26502527     -0.00932464      0.03259964      0.02082480
 H      0.09238469     -0.06447861      0.38223552      0.01639427     -0.01229018     -0.00144227
    2
 MD step:        2550 time   6.1681550325877499     
 H     -0.05078150      0.19127204     -0.26259688     -0.00966741      0.03318184      0.01933279
 H      0.09438806     -0.06600014      0.38215134      0.01673704     -0.01287238      0.00004974
    2
 MD step:        2600 time   6.2890992489130007     
 H     -0.05197107      0.19532051     -0.26034690     -0.01000082      0.03376472      0.01788575
 H      0.09643266     -0.06759230      0.38224556      0.01707045     -0.01345525      0.00149678
    2
 MD step:        2650 time   6.4100434652382505     
 H     -0.05320032      0.19943897     -0.25826815     -0.01032687      0.03433836      0.01649857
 H      0.09851694     -0.06925444      0.38251101      0.01739650     -0.01402890      0.00288396
    2
 MD step:        2700 time   6.5309876815635004     
 H     -0.05446939      0.20362601     -0.25635412     -0.01065816      0.03489742      0.01516565
 H      0.10064105     -0.07098517      0.38294119      0.01772779     -0.01458796      0.00421688
    2
 MD step:        2750 time   6.6519318978887503     
 H     -0.05577709      0.20787902     -0.25459505     -0.01096146      0.03542696      0.01394309
 H      0.10280378     -0.07278187      0.38352633      0.01803108     -0.01511750      0.00543944
    2
 MD step:        2800 time   6.7728761142140002     
 H     -0.05711995      0.21219395     -0.25297701     -0.01124282      0.03592089      0.01283062
 H      0.10500167     -0.07464049      0.38425249      0.01831245     -0.01561143      0.00655191
    2
 MD step:        2850 time   6.8938203305392500     
 H     -0.05849636      0.21656620     -0.25148749     -0.01151360      0.03637264      0.01182273
 H      0.10723310     -0.07655642      0.38510718      0.01858323     -0.01606318      0.00755980
    2
 MD step:        2900 time   7.0147645468644999     
 H     -0.05990312      0.22098981     -0.25011092     -0.01174260      0.03676922      0.01096602
 H      0.10949490     -0.07852373      0.38607481      0.01881223     -0.01645976      0.00841652
    2
 MD step:        2950 time   7.1357087631897507     
 H     -0.06133531      0.22545793     -0.24882918     -0.01193683      0.03710812      0.01025123
 H      0.11178212     -0.08053553      0.38713728      0.01900646     -0.01679865      0.00913130
    2
 MD step:        3000 time   7.2566529795150005     
 H     -0.06278969      0.22996325     -0.24762598     -0.01210664      0.03738242      0.00967231
 H      0.11409152     -0.08258454      0.38827828      0.01917627     -0.01707296      0.00971022
    2
 MD step:        3050 time   7.3775971958402504     
 H     -0.06426166      0.23449734     -0.24648269     -0.01222663      0.03758390      0.00926045
 H      0.11641853     -0.08466232      0.38947920      0.01929625     -0.01727444      0.01012209
    2
 MD step:        3100 time   7.4985414121655003     
 H     -0.06574530      0.23905144     -0.24537967     -0.01230221      0.03771285      0.00900329
 H      0.11875720     -0.08676010      0.39072038      0.01937184     -0.01740339      0.01037924
    2
 MD step:        3150 time   7.6194856284907502     
 H     -0.06723627      0.24361655     -0.24429931     -0.01234552      0.03776466      0.00888892
 H      0.12110320     -0.08886890      0.39198423      0.01941515     -0.01745520      0.01049361
    2
 MD step:        3200 time   7.7404298448160000     
 H     -0.06872935      0.24818299     -0.24322291     -0.01233611      0.03773542      0.00893692
 H      0.12345131     -0.09097903      0.39325203      0.01940574     -0.01742596      0.01044561
    2
 MD step:        3250 time   7.8613740611412499     
 H     -0.07021817      0.25274117     -0.24213150     -0.01227768      0.03762815      0.00913371
 H      0.12579516     -0.09308090      0.39450482      0.01934731     -0.01731868      0.01024882
    2
 MD step:        3300 time   7.9823182774665007     
 H     -0.07169794      0.25728156     -0.24100842     -0.01218507      0.03744034      0.00946212
 H      0.12812996     -0.09516498      0.39572595      0.01925470     -0.01713088      0.00992041
    2
 MD step:        3350 time   8.1032624937917497     
 H     -0.07316344      0.26179426     -0.23983679     -0.01204053      0.03717130      0.00993546
 H      0.13045049     -0.09722137      0.39689852      0.01911016     -0.01686184      0.00944707
    2
 MD step:        3400 time   8.2242067101170004     
 H     -0.07460835      0.26626982     -0.23859981     -0.01184703      0.03682655      0.01053911
 H      0.13275044     -0.09924061      0.39800575      0.01891666     -0.01651709      0.00884342
    2
 MD step:        3450 time   8.3451509264422494     
 H     -0.07602802      0.27069917     -0.23728337     -0.01162305      0.03640684      0.01124926
 H      0.13502514     -0.10121365      0.39903352      0.01869268     -0.01609738      0.00813327
    2
 MD step:        3500 time   8.4660951427675002     
 H     -0.07741780      0.27507317     -0.23587380     -0.01135095      0.03591231      0.01207923
 H      0.13726995     -0.10313134      0.39996815      0.01842058     -0.01560285      0.00730330
    2
 MD step:        3550 time   8.5870393590927510     
 H     -0.07877181      0.27938324     -0.23435730     -0.01103380      0.03535073      0.01301341
 H      0.13947899     -0.10498510      0.40079585      0.01810343     -0.01504127      0.00636912
    2
 MD step:        3600 time   8.7079835754179999     
 H     -0.08008595      0.28362154     -0.23272311     -0.01069318      0.03472537      0.01402337
 H      0.14164816     -0.10676709      0.40150587      0.01776280     -0.01441591      0.00535916
    2
 MD step:        3650 time   8.8289277917432507     
 H     -0.08135659      0.28778032     -0.23096141     -0.01031101      0.03403634      0.01512404
 H      0.14377382     -0.10846955      0.40208838      0.01738063     -0.01372688      0.00425849
    2
 MD step:        3700 time   8.9498720080684997     
 H     -0.08257846      0.29185233     -0.22906167     -0.00988951      0.03329232      0.01630150
 H      0.14585073     -0.11008526      0.40253284      0.01695914     -0.01298286      0.00308103
    2
 MD step:        3750 time   9.0708162243937505     
 H     -0.08374826      0.29583142     -0.22701667     -0.00945338      0.03250017      0.01752188
 H      0.14787556     -0.11160803      0.40283204      0.01652300     -0.01219071      0.00186065
    2
 MD step:        3800 time   9.1917604407189994     
 H     -0.08486380      0.29971179     -0.22482093     -0.00898643      0.03165997      0.01879938
 H      0.14984612     -0.11303209      0.40298051      0.01605606     -0.01135051      0.00058315
    2
 MD step:        3850 time   9.3127046570442502     
 H     -0.08592064      0.30348796     -0.22246726     -0.00848622      0.03077882      0.02012793
 H      0.15175799     -0.11435194      0.40297105      0.01555585     -0.01046936     -0.00074540
    2
 MD step:        3900 time   9.4336488733695010     
 H     -0.08691631      0.30715561     -0.21995174     -0.00797971      0.02986678      0.02146988
 H      0.15360870     -0.11556328      0.40279973      0.01504934     -0.00955732     -0.00208735
    2
 MD step:        3950 time   9.5545930896947500     
 H     -0.08785020      0.31071121     -0.21727312     -0.00745742      0.02892556      0.02283217
 H      0.15539761     -0.11666257      0.40246531      0.01452705     -0.00861610     -0.00344964
    2
 MD step:        4000 time   9.6755373060200007     
 H     -0.08871905      0.31415134     -0.21442776     -0.00690814      0.02795921      0.02422168
 H      0.15712150     -0.11764640      0.40196416      0.01397776     -0.00764975     -0.00483915
    2
 MD step:        4050 time   9.7964815223452497     
 H     -0.08952123      0.31747367     -0.21141463     -0.00635980      0.02697930      0.02559994
 H      0.15877871     -0.11851241      0.40129523      0.01342943     -0.00666984     -0.00621741
    2
 MD step:        4100 time   9.9174257386705005     
 H     -0.09025757      0.32067704     -0.20823623     -0.00581325      0.02599196      0.02696086
 H      0.16037008     -0.11925946      0.40046104      0.01288288     -0.00568250     -0.00757833
    2
 MD step:        4150 time   10.038369954995749     
 H     -0.09092653      0.32376055     -0.20489288     -0.00524820      0.02499828      0.02832395
 H      0.16189407     -0.11988666      0.39946190      0.01231783     -0.00468882     -0.00894142
    2
 MD step:        4200 time   10.159314171321000     
 H     -0.09152740      0.32672399     -0.20138632     -0.00469166      0.02400873      0.02965409
 H      0.16334997     -0.12039380      0.39829954      0.01176129     -0.00369926     -0.01027156
    2
 MD step:        4250 time   10.280258387646251     
 H     -0.09206221      0.32956859     -0.19772203     -0.00415238      0.02303361      0.03093519
 H      0.16473982     -0.12078208      0.39697946      0.01122201     -0.00272415     -0.01155266
    2
 MD step:        4300 time   10.401202603971500     
 H     -0.09253142      0.33229618     -0.19390434     -0.00360727      0.02207439      0.03219013
 H      0.16606405     -0.12105336      0.39550597      0.01067690     -0.00176493     -0.01280760
    2
 MD step:        4350 time   10.522146820296751     
 H     -0.09293555      0.33490908     -0.18993786     -0.00308013      0.02113878      0.03339053
 H      0.16732321     -0.12120994      0.39388370      0.01014975     -0.00082932     -0.01400800
    2
 MD step:        4400 time   10.643091036622000     
 H     -0.09327774      0.33741088     -0.18583062     -0.00258234      0.02023916      0.03451751
 H      0.16852044     -0.12125544      0.39212067      0.00965197      0.00007031     -0.01513497
    2
 MD step:        4450 time   10.764035252947250     
 H     -0.09356046      0.33980633     -0.18159058     -0.00209501      0.01938017      0.03558844
 H      0.16965819     -0.12119457      0.39022483      0.00916463      0.00092929     -0.01620591
    2
 MD step:        4500 time   10.884979469272501     
 H     -0.09378577      0.34210055     -0.17722536     -0.00163712      0.01856678      0.03658288
 H      0.17073853     -0.12103248      0.38820381      0.00870675      0.00174268     -0.01720035
    2
 MD step:        4550 time   11.005923685597750     
 H     -0.09395810      0.34429973     -0.17274537     -0.00121913      0.01781077      0.03748478
 H      0.17176588     -0.12077535      0.38606802      0.00828875      0.00249869     -0.01810225
    2
 MD step:        4600 time   11.126867901923001     
 H     -0.09408168      0.34641141     -0.16816146     -0.00082856      0.01712026      0.03830392
 H      0.17274449     -0.12043072      0.38382833      0.00789819      0.00318920     -0.01892139
    2
 MD step:        4650 time   11.247812118248250     
 H     -0.09416029      0.34844371     -0.16348408     -0.00048000      0.01649910      0.03902604
 H      0.17367814     -0.12000671      0.38149515      0.00754963      0.00381036     -0.01964351
    2
 MD step:        4700 time   11.368756334573501     
 H     -0.09419981      0.35040551     -0.15872586     -0.00018231      0.01595664      0.03963961
 H      0.17457269     -0.11951219      0.37908113      0.00725194      0.00435282     -0.02025708
    2
 MD step:        4750 time   11.489700550898750     
 H     -0.09420608      0.35230703     -0.15389985      0.00007245      0.01550295      0.04014995
 H      0.17543399     -0.11895741      0.37659932      0.00699718      0.00480651     -0.02076742
    2
 MD step:        4800 time   11.610644767224001     
 H     -0.09418450      0.35415917     -0.14901861      0.00027374      0.01514070      0.04054848
 H      0.17626743     -0.11835324      0.37406229      0.00679589      0.00516876     -0.02116595
    2
 MD step:        4850 time   11.731588983549251     
 H     -0.09414231      0.35597333     -0.14409643      0.00041313      0.01487679      0.04082665
 H      0.17708028     -0.11771108      0.37148432      0.00665650      0.00543267     -0.02144412
    2
 MD step:        4900 time   11.852533199874500     
 H     -0.09408680      0.35776207     -0.13914777      0.00049703      0.01472085      0.04098971
 H      0.17787980     -0.11704351      0.36887986      0.00657259      0.00558861     -0.02160718
    2
 MD step:        4950 time   11.973477416199751     
 H     -0.09402462      0.35953850     -0.13418627      0.00051911      0.01467335      0.04103513
 H      0.17867265     -0.11636363      0.36626256      0.00655051      0.00563611     -0.02165260
    2
 MD step:        5000 time   12.094421632525000     
 H     -0.09396402      0.36131589     -0.12922678      0.00047068      0.01473829      0.04095640
 H      0.17946709     -0.11568470      0.36364728      0.00659895      0.00557117     -0.02157387
    2
 MD step:        5050 time   12.215365848850251     
 H     -0.09391332      0.36310835     -0.12428408      0.00035915      0.01492237      0.04076207
 H      0.18027142     -0.11502085      0.36104878      0.00671047      0.00538709     -0.02137954
    2
 MD step:        5100 time   12.336310065175500     
 H     -0.09387976      0.36493007     -0.11937139      0.00018349      0.01522169      0.04045715
 H      0.18109288     -0.11438626      0.35848030      0.00688614      0.00508778     -0.02107462
    2
 MD step:        5150 time   12.457254281500751     
 H     -0.09387189      0.36679498     -0.11450262     -0.00006632      0.01563766      0.04003526
 H      0.18194004     -0.11379486      0.35595574      0.00713595      0.00467180     -0.02065273
    2
 MD step:        5200 time   12.578198497826001     
 H     -0.09389834      0.36871740     -0.10969143     -0.00037885      0.01617098      0.03951174
 H      0.18282152     -0.11326096      0.35348876      0.00744848      0.00413848     -0.02012921
    2
 MD step:        5250 time   12.699142714151250     
 H     -0.09396589      0.37071087     -0.10494880     -0.00074943      0.01681171      0.03889922
 H      0.18374411     -0.11279812      0.35109033      0.00781906      0.00349775     -0.01951669
    2
 MD step:        5300 time   12.820086930476501     
 H     -0.09408243      0.37278822     -0.10028605     -0.00119016      0.01755853      0.03818991
 H      0.18471568     -0.11241917      0.34877178      0.00825979      0.00275093     -0.01880738
    2
 MD step:        5350 time   12.941031146801750     
 H     -0.09425578      0.37496202     -0.09571392     -0.00168173      0.01840298      0.03740968
 H      0.18574406     -0.11213665      0.34654385      0.00875135      0.00190648     -0.01802714
    2
 MD step:        5400 time   13.061975363127001     
 H     -0.09449100      0.37724303     -0.09123934     -0.00221635      0.01933041      0.03657442
 H      0.18683430     -0.11196135      0.34441348      0.00928598      0.00097906     -0.01719189
    2
 MD step:        5450 time   13.182919579452250     
 H     -0.09479425      0.37964102     -0.08686967     -0.00280778      0.02033641      0.03567456
 H      0.18799259     -0.11190302      0.34238801      0.00987740     -0.00002695     -0.01629203
    2
 MD step:        5500 time   13.303863795777501     
 H     -0.09517113      0.38216454     -0.08261101     -0.00342627      0.02140174      0.03474793
 H      0.18922449     -0.11197023      0.34047356      0.01049589     -0.00109228     -0.01536540
    2
 MD step:        5550 time   13.424808012102751     
 H     -0.09562391      0.38481964     -0.07846518     -0.00406586      0.02251124      0.03380651
 H      0.19053231     -0.11216902      0.33867194      0.01113548     -0.00220178     -0.01442398
    2
 MD step:        5600 time   13.545752228428000     
 H     -0.09615607      0.38761118     -0.07443467     -0.00473793      0.02365510      0.03284269
 H      0.19191950     -0.11250425      0.33698564      0.01180756     -0.00334563     -0.01346016
    2
 MD step:        5650 time   13.666696444753251     
 H     -0.09676965      0.39054181     -0.07051989     -0.00540676      0.02480749      0.03189930
 H      0.19338811     -0.11297857      0.33541506      0.01247638     -0.00449803     -0.01251677
    2
 MD step:        5700 time   13.787640661078500     
 H     -0.09746368      0.39361169     -0.06671759     -0.00607012      0.02595616      0.03098128
 H      0.19493717     -0.11359214      0.33395696      0.01313975     -0.00564670     -0.01159875
    2
 MD step:        5750 time   13.908584877403751     
 H     -0.09823811      0.39681954     -0.06302513     -0.00673323      0.02708478      0.03008637
 H      0.19656663     -0.11434368      0.33260870      0.01380285     -0.00677532     -0.01070384
    2
 MD step:        5800 time   14.029529093729000     
 H     -0.09909096      0.40016138     -0.05943755     -0.00736469      0.02816985      0.02924950