    2
 MD step:           0 time   0.0000000000000000     
 H      0.00000000      0.00000000     -0.37000000      0.04421462     -0.02949593      0.02186773
 H      0.00000000      0.00000000      0.37000000     -0.01401362      0.01959115     -0.00650375
    2
 MD step:          50 time  0.12094421632525000     
 H      0.00534754     -0.00356799     -0.36736705      0.04421584     -0.02951452      0.02162932
 H     -0.00169491      0.00237006      0.36922523     -0.01401484      0.01960974     -0.00626533
    2
 MD step:         100 time  0.24188843265050000     
 H      0.01069553     -0.00713876     -0.36477745      0.04422277     -0.02954078      0.02113179
 H     -0.00339026      0.00474291      0.36849382     -0.01402177      0.01963600     -0.00576780
    2
 MD step:         150 time  0.36283264897575002     
 H      0.01604491     -0.01071459     -0.36226354      0.04423939     -0.02957827      0.02041234
 H     -0.00508700      0.00712081      0.36783810     -0.01403839      0.01967349     -0.00504835
    2
 MD step:         200 time  0.48377686530100000     
 H      0.02139693     -0.01429525     -0.35984624      0.04426629     -0.02962411      0.01957096
 H     -0.00678639      0.00950355      0.36727898     -0.01406529      0.01971933     -0.00420697
    2
 MD step:         250 time  0.60472108162625005     
 H      0.02675272     -0.01787961     -0.35752955      0.04430122     -0.02965544      0.01874119
 H     -0.00848953      0.01188998      0.36682047     -0.01410022      0.01975066     -0.00337721
    2
 MD step:         300 time  0.72566529795150003     
 H      0.03211324     -0.02146797     -0.35531164      0.04434528     -0.02968756      0.01792226
 H     -0.01019742      0.01428041      0.36646075     -0.01414428      0.01978278     -0.00255827
    2
 MD step:         350 time  0.84660951427675002     
 H      0.03747996     -0.02506237     -0.35320020      0.04440515     -0.02975796      0.01696973
 H     -0.01191151      0.01667689      0.36620749     -0.01420415      0.01985318     -0.00160574
    2
 MD step:         400 time  0.96755373060200001     
 H      0.04285528     -0.02866648     -0.35121571      0.04448761     -0.02985815      0.01580684
 H     -0.01363419      0.01908307      0.36608119     -0.01428661      0.01995337     -0.00044285
    2
 MD step:         450 time   1.0884979469272500     
 H      0.04824186     -0.03228374     -0.34937922      0.04459002     -0.02996069      0.01454392
 H     -0.01536813      0.02150241      0.36610289     -0.01438902      0.02005591      0.00082006
    2
 MD step:         500 time   1.2094421632525001     
 H      0.05364150     -0.03591435     -0.34769559      0.04470161     -0.03006255      0.01332847
 H     -0.01711514      0.02393509      0.36627744     -0.01450061      0.02015777      0.00203552
    2
 MD step:         550 time   1.3303863795777500     
 H      0.05905471     -0.03955632     -0.34615176      0.04481427     -0.03016071      0.01222877
 H     -0.01887571      0.02637913      0.36659180     -0.01461327      0.02025593      0.00313521
    2
 MD step:         600 time   1.4513305959030001     
 H      0.06448182     -0.04321006     -0.34473557      0.04493357     -0.03026353      0.01118429
 H     -0.02065019      0.02883495      0.36703380     -0.01473257      0.02035875      0.00417970
    2
 MD step:         650 time   1.5722748122282502     
 H      0.06992435     -0.04687894     -0.34344998      0.04507065     -0.03040342      0.01006987
 H     -0.02244008      0.03130590      0.36760638     -0.01486965      0.02049864      0.00529411
    2
 MD step:         700 time   1.6932190285535000     
 H      0.07538461     -0.05056606     -0.34230520      0.04522502     -0.03057327      0.00887026
 H     -0.02424770      0.03379510      0.36831980     -0.01502402      0.02066849      0.00649373
    2
 MD step:         750 time   1.8141632448787501     
 H      0.08086379     -0.05427204     -0.34130081      0.04537966     -0.03072030      0.00775204
 H     -0.02607424      0.03630315      0.36917359     -0.01517866      0.02081552      0.00761195
    2
 MD step:         800 time   1.9351074612040000     
 H      0.08636068     -0.05799448     -0.34041902      0.04551564     -0.03083069      0.00686179
 H     -0.02791850      0.03882767      0.37014998     -0.01531464      0.02092591      0.00850220
    2
 MD step:         850 time   2.0560516775292501     
 H      0.09187261     -0.06172959     -0.33963294      0.04562984     -0.03093140      0.00616611
 H     -0.02977779      0.04136485      0.37122208     -0.01542884      0.02102662      0.00919788
    2
 MD step:         900 time   2.1769958938545000     
 H      0.09739767     -0.06547632     -0.33892407      0.04573584     -0.03103450      0.00554896
 H     -0.03165021      0.04391365      0.37237141     -0.01553484      0.02112972      0.00981502
    2
 MD step:         950 time   2.2979401101797499     
 H      0.10293567     -0.06923697     -0.33828917      0.04584488     -0.03114829      0.00494312
 H     -0.03353558      0.04647638      0.37359469     -0.01564388      0.02124351      0.01042087
    2
 MD step:        1000 time   2.4188843265050002     
 H      0.10848664     -0.07301254     -0.33772774      0.04594758     -0.03127147      0.00437339
 H     -0.03543391      0.04905402      0.37489144     -0.01574658      0.02136670      0.01099060
    2
 MD step:        1050 time   2.5398285428302501     
 H      0.11404849     -0.07679994     -0.33722614      0.04602011     -0.03135881      0.00396100
 H     -0.03734312      0.05164350      0.37624802     -0.01581911      0.02145403      0.01140298
    2
 MD step:        1100 time   2.6607727591554999     
 H      0.11961626     -0.08059368     -0.33675699      0.04604269     -0.03137616      0.00382895
 H     -0.03925826      0.05423931      0.37763706     -0.01584169      0.02147138      0.01153504
    2
 MD step:        1150 time   2.7817169754807503     
 H      0.12518362     -0.08438756     -0.33628882      0.04601484     -0.03135288      0.00394665
 H     -0.04117298      0.05683527      0.37902708     -0.01581384      0.02144810      0.01141734
    2
 MD step:        1200 time   2.9026611918060001     
 H      0.13074535     -0.08817715     -0.33579763      0.04595311     -0.03131761      0.00418695
 H     -0.04308208      0.05942693      0.38039407     -0.01575211      0.02141283      0.01117704
    2
 MD step:        1250 time   3.0236054081312500     
 H      0.13629852     -0.09196178     -0.33527297      0.04587565     -0.03127103      0.00447525
 H     -0.04498261      0.06201363      0.38172759     -0.01567465      0.02136625      0.01088873
    2
 MD step:        1300 time   3.1445496244565003     
 H      0.14184142     -0.09574192     -0.33471279      0.04578377     -0.03122368      0.00479910
 H     -0.04687288      0.06459585      0.38302560     -0.01558277      0.02131890      0.01056488
    2
 MD step:        1350 time   3.2654938407817502     
 H      0.14737154     -0.09951509     -0.33411065      0.04566050     -0.03116217      0.00519315
 H     -0.04875035      0.06717110      0.38428165     -0.01545950      0.02125739      0.01017083
    2
 MD step:        1400 time   3.3864380571070001     
 H      0.15288386     -0.10327591     -0.33344947      0.04548331     -0.03103279      0.00576601
 H     -0.05061004      0.06973399      0.38547865     -0.01528231      0.02112801      0.00959798
    2
 MD step:        1450 time   3.5073822734322500     
 H      0.15837080     -0.10701721     -0.33270410      0.04523838     -0.03082395      0.00659065
 H     -0.05244434      0.07227736      0.38659146     -0.01503738      0.02091917      0.00877334
    2
 MD step:        1500 time   3.6283264897575003     
 H      0.16382387     -0.11073061     -0.33184718      0.04492610     -0.03056698      0.00761983
 H     -0.05424478      0.07479284      0.38759273     -0.01472509      0.02066220      0.00774416
    2
 MD step:        1550 time   3.7492707060827501     
 H      0.16923583     -0.11440950     -0.33085636      0.04456256     -0.03026986      0.00877614
 H     -0.05600411      0.07727380      0.38846010     -0.01436156      0.02036508      0.00658785
    2
 MD step:        1600 time   3.8702149224080000     
 H      0.17460188     -0.11805136     -0.32972093      0.04417116     -0.02994952      0.00999539
 H     -0.05771752      0.07971774      0.38918285     -0.01397016      0.02004474      0.00536860
    2
 MD step:        1650 time   3.9911591387332503     
 H      0.17991966     -0.12165557     -0.32844012      0.04376638     -0.02964328      0.01119594
 H     -0.05938266      0.08212402      0.38976023     -0.01356538      0.01973850      0.00416804
    2
 MD step:        1700 time   4.1121033550585002     
 H      0.18518816     -0.12522165     -0.32701631      0.04335130     -0.02933739      0.01235257
 H     -0.06099853      0.08449217      0.39019460     -0.01315030      0.01943261      0.00301142
    2
 MD step:        1750 time   4.2330475713837501     
 H      0.19040573     -0.12874909     -0.32545053      0.04291990     -0.02899558      0.01353352
 H     -0.06256346      0.08682169      0.39048700     -0.01271890      0.01909080      0.00183046
    2
 MD step:        1800 time   4.3539917877090000     
 H      0.19556876     -0.13223488     -0.32373882      0.04245233     -0.02862288      0.01479415
 H     -0.06407385      0.08910956      0.39063348     -0.01225133      0.01871810      0.00056983
    2
 MD step:        1850 time   4.4749360040342498     
 H      0.20067162     -0.13567229     -0.32186904      0.04192545     -0.02820860      0.01615798
 H     -0.06552407      0.09134904      0.39062189     -0.01172445      0.01830382     -0.00079400
    2
 MD step:        1900 time   4.5958802203594997     
 H      0.20570715     -0.13905401     -0.31982428      0.04133448     -0.02771714      0.01766533
 H     -0.06690697      0.09353283      0.39043531     -0.01113348      0.01781236     -0.00230134
    2
 MD step:        1950 time   4.7168244366847505     
 H      0.21066781     -0.14237363     -0.31758909      0.04068818     -0.02716697      0.01930924
 H     -0.06821499      0.09565453      0.39005831     -0.01048718      0.01726219     -0.00394525
    2
 MD step:        2000 time   4.8377686530100004     
 H      0.21554750     -0.14562537     -0.31515201      0.04000039     -0.02659819      0.02100657
 H     -0.06944205      0.09770834      0.38947941     -0.00979939      0.01669341     -0.00564259
    2
 MD step:        2050 time   4.9587128693352502     
 H      0.22034278     -0.14880644     -0.31250831      0.03929565     -0.02601433      0.02269587
 H     -0.07058469      0.09969148      0.38869390     -0.00909465      0.01610955     -0.00733189
    2
 MD step:        2100 time   5.0796570856605001     
 H      0.22505290     -0.15191797     -0.30966269      0.03859787     -0.02543700      0.02434024
 H     -0.07164217      0.10160509      0.38770647     -0.00839687      0.01553222     -0.00897625
    2
 MD step:        2150 time   5.2006013019857500     
 H      0.22967951     -0.15496216     -0.30662588      0.03791651     -0.02490067      0.02587755
 H     -0.07261615      0.10345136      0.38652784     -0.00771551      0.01499589     -0.01051357
    2
 MD step:        2200 time   5.3215455183109999     
 H      0.23422549     -0.15794156     -0.30340954      0.03725613     -0.02438390      0.02729712
 H     -0.07350949      0.10523283      0.38516969     -0.00705513      0.01447912     -0.01193313
    2
 MD step:        2250 time   5.4424897346362506     
 H      0.23869287     -0.16085891     -0.30002430      0.03661391     -0.02385955      0.02866244
 H     -0.07432423      0.10695225      0.38364263     -0.00641291      0.01395477     -0.01329846
    2
 MD step:        2300 time   5.5634339509615005     
 H      0.24308186     -0.16371420     -0.29647669      0.03596656     -0.02333744      0.03001102
 H     -0.07506059      0.10860962      0.38195320     -0.00576556      0.01343266     -0.01464703
    2
 MD step:        2350 time   5.6843781672867504     
 H      0.24739079     -0.16650401     -0.29276589      0.03528883     -0.02279511      0.03136583
 H     -0.07571689      0.11020150      0.38010059     -0.00508783      0.01289033     -0.01600185
    2
 MD step:        2400 time   5.8053223836120003     
 H      0.25161616     -0.16922431     -0.28888663      0.03457756     -0.02219653      0.03277710
 H     -0.07628962      0.11172387      0.37807952     -0.00437656      0.01229175     -0.01741311
    2
 MD step:        2450 time   5.9262665999372501     
 H      0.25575386     -0.17187132     -0.28483403      0.03384024     -0.02156613      0.03424151
 H     -0.07677467      0.11317296      0.37588510     -0.00363924      0.01166135     -0.01887753
    2
 MD step:        2500 time   6.0472108162625000     
 H      0.25980134     -0.17444190     -0.28060553      0.03309216     -0.02094045      0.03568584
 H     -0.07716953      0.11454561      0.37351478     -0.00289116      0.01103567     -0.02032186
    2
 MD step:        2550 time   6.1681550325877499     
 H      0.26375931     -0.17693680     -0.27620493      0.03236501     -0.02032935      0.03705795
 H     -0.07747486      0.11584259      0.37097237     -0.00216401      0.01042457     -0.02169396
    2
 MD step:        2600 time   6.2890992489130007     
 H      0.26763211     -0.17936141     -0.27164561      0.03169034     -0.01976866      0.03831055
 H     -0.07769502      0.11706927      0.36827124     -0.00148934      0.00986388     -0.02294657
    2
 MD step:        2650 time   6.4100434652382505     
 H      0.27142740     -0.18172302     -0.26694694      0.03108386     -0.01929201      0.03937726
 H     -0.07783768      0.11823296      0.36543075     -0.00088286      0.00938723     -0.02401328
    2
 MD step:        2700 time   6.5309876815635004     
 H      0.27515416     -0.18402966     -0.26212901      0.03054962     -0.01887377      0.04026510
 H     -0.07791179      0.11934167      0.36247100     -0.00034862      0.00896900     -0.02490111
    2
 MD step:        2750 time   6.6519318978887503     
 H      0.27882006     -0.18628867     -0.25721008      0.03007386     -0.01848498      0.04105020
 H     -0.07792507      0.12040275      0.35941026      0.00012714      0.00858020     -0.02568622
    2
 MD step:        2800 time   6.7728761142140002     
 H      0.28242985     -0.18850321     -0.25220173      0.02962350     -0.01812082      0.04177802
 H     -0.07788222      0.12141937      0.35626010      0.00057750      0.00821604     -0.02641404
    2
 MD step:        2850 time   6.8938203305392500     
 H      0.28598549     -0.19067275     -0.24710733      0.02917833     -0.01775760      0.04247183
 H     -0.07778522      0.12239098      0.35302388      0.00102267      0.00785282     -0.02710785
    2
 MD step:        2900 time   7.0147645468644999     
 H      0.28948800     -0.19279725     -0.24192825      0.02874589     -0.01738492      0.04315585
 H     -0.07763510      0.12331756      0.34970299      0.00145511      0.00748015     -0.02779187
    2
 MD step:        2950 time   7.1357087631897507     
 H      0.29294057     -0.19487956     -0.23667068      0.02835886     -0.01705680      0.04376937
 H     -0.07743503      0.12420194      0.34630360      0.00184214      0.00715202     -0.02840538
    2
 MD step:        3000 time   7.2566529795150005     
 H      0.29635133     -0.19692702     -0.23134852      0.02806085     -0.01682409      0.04420943
 H     -0.07719315      0.12505147      0.34283963      0.00214015      0.00691931     -0.02884545
    2
 MD step:        3050 time   7.3775971958402504     
 H      0.29973324     -0.19895241     -0.22598415      0.02788430     -0.01669541      0.04444602
 H     -0.07692242      0.12587894      0.33933344      0.00231670      0.00679063     -0.02908204
    2
 MD step:        3100 time   7.4985414121655003     
 H      0.30310073     -0.20096974     -0.22060332      0.02782145     -0.01666776      0.04450683
 H     -0.07663728      0.12669834      0.33581079      0.00237955      0.00676298     -0.02914284
    2
 MD step:        3150 time   7.6194856284907502     
 H      0.30646554     -0.20298831     -0.21522498      0.02783382     -0.01671167      0.04443608
 H     -0.07634945      0.12751899      0.33229064      0.00236718      0.00680689     -0.02907209
    2
 MD step:        3200 time   7.7404298448160000     
 H      0.30983433     -0.20501205     -0.20985716      0.02788052     -0.01676524      0.04432401
 H     -0.07606561      0.12834480      0.32878101      0.00232048      0.00686046     -0.02896002
    2
 MD step:        3250 time   7.8613740611412499     
 H      0.31321054     -0.20704285     -0.20450248      0.02795815     -0.01682716      0.04420896
 H     -0.07578917      0.12917767      0.32528451      0.00224285      0.00692238     -0.02884498
    2
 MD step:        3300 time   7.9823182774665007     
 H      0.31659982     -0.20908528     -0.19916671      0.02810522     -0.01696322      0.04400811
 H     -0.07552582      0.13002218      0.32180693      0.00209579      0.00705844     -0.02864413
    2
 MD step:        3350 time   8.1032624937917497     
 H      0.32001380     -0.21115037     -0.19386433      0.02837241     -0.01721744      0.04363348
 H     -0.07528716      0.13088935      0.31836273      0.00182859      0.00731266     -0.02826950
    2
 MD step:        3400 time   8.2242067101170004     
 H      0.32346807     -0.21325379     -0.18861721      0.02876876     -0.01758311      0.04309610
 H     -0.07508879      0.13179484      0.31497380      0.00143224      0.00767833     -0.02773211
    2
 MD step:        3450 time   8.3451509264422494     
 H      0.32697595     -0.21540750     -0.18344369      0.02924941     -0.01802404      0.04245881
 H     -0.07494404      0.13275063      0.31165847      0.00095159      0.00811926     -0.02709483
    2
 MD step:        3500 time   8.4660951427675002     
 H      0.33054367     -0.21761485     -0.17834885      0.02975004     -0.01847329      0.04181033
 H     -0.07485913      0.13376004      0.30842181      0.00045096      0.00856851     -0.02644635
    2
 MD step:        3550 time   8.5870393590927510     
 H      0.33417226     -0.21987509     -0.17332910      0.03025838     -0.01891052      0.04119782
 H     -0.07483508      0.13482236      0.30526024     -0.00005737      0.00900574     -0.02583383
    2
 MD step:        3600 time   8.7079835754179999     
 H      0.33786487     -0.22219127     -0.16838478      0.03081751     -0.01940175      0.04055635
 H     -0.07487505      0.13594061      0.30217411     -0.00061651      0.00949697     -0.02519237
    2
 MD step:        3650 time   8.8289277917432507     
 H      0.34163079     -0.22457284     -0.16352516      0.03147204     -0.02000129      0.03979180
 H     -0.07498833      0.13712425      0.29917267     -0.00127104      0.01009651     -0.02442781
    2
 MD step:        3700 time   8.9498720080684997     
 H      0.34548101     -0.22703091     -0.15876259      0.03220204     -0.02066326      0.03894345
 H     -0.07518592      0.13838441      0.29626828     -0.00200104      0.01075848     -0.02357947
    2
 MD step:        3750 time   9.0708162243937505     
 H      0.34942058     -0.22956991     -0.15410217      0.03293616     -0.02131085      0.03812821
 H     -0.07547286      0.13972547      0.29346605     -0.00273516      0.01140607     -0.02276423
    2
 MD step:        3800 time   9.1917604407189994     
 H      0.35344587     -0.23218445     -0.14953607      0.03361754     -0.02190652      0.03740435
 H     -0.07584551      0.14114209      0.29075814     -0.00341654      0.01200175     -0.02204036
    2
 MD step:        3850 time   9.3127046570442502     
 H      0.35755096     -0.23486801     -0.14505240      0.03426491     -0.02247121      0.03674503
 H     -0.07629797      0.14262772      0.28813265     -0.00406391      0.01256643     -0.02138104
    2
 MD step:        3900 time   9.4336488733695010     
 H      0.36173494     -0.23762130     -0.14064761      0.03493090     -0.02306212      0.03608857
 H     -0.07682930      0.14418309      0.28558605     -0.00472990      0.01315735     -0.02072458
    2
 MD step:        3950 time   9.5545930896947500     
 H      0.36600139     -0.24044948     -0.13632580      0.03562404     -0.02369982      0.03539384
 H     -0.07744312      0.14581335      0.28312243     -0.00542304      0.01379504     -0.02002985
    2
 MD step:        4000 time   9.6755373060200007     
 H      0.37035065     -0.24335302     -0.13208704      0.03628757     -0.02431013      0.03471825
 H     -0.07813975      0.14751895      0.28074185     -0.00608657      0.01440535     -0.01935426
    2
 MD step:        4050 time   9.7964815223452497     
 H      0.37477471     -0.24632379     -0.12792166      0.03685030     -0.02480492      0.03417511
 H     -0.07891116      0.14929180      0.27843465     -0.00664930      0.01490014     -0.01881113
    2
 MD step:        4100 time   9.9174257386705005     
 H      0.37925947     -0.24934800     -0.12381329      0.03729580     -0.02518983      0.03377996
 H     -0.07974329      0.15111809      0.27618446     -0.00709480      0.01528505     -0.01841597
    2
 MD step:        4150 time   10.038369954995749     
 H      0.38379306     -0.25241473     -0.11974763      0.03766709     -0.02552332      0.03345581
 H     -0.08062425      0.15298689      0.27397699     -0.00746609      0.01561854     -0.01809182
    2
 MD step:        4200 time   10.159314171321000     
 H      0.38836953     -0.25552052     -0.11571870      0.03801000     -0.02583975      0.03315523
 H     -0.08154808      0.15489475      0.27180625     -0.00780900      0.01593497     -0.01779125
    2
 MD step:        4250 time   10.280258387646251     
 H      0.39298533     -0.25866435     -0.11172576      0.03831222     -0.02613040      0.03288401
 H     -0.08251124      0.15684066      0.26967149     -0.00811121      0.01622563     -0.01752003
    2
 MD step:        4300 time   10.401202603971500     
 H      0.39763259     -0.26183914     -0.10776355      0.03852094     -0.02634527      0.03267056
 H     -0.08350587      0.15881753      0.26756747     -0.00831994      0.01644049     -0.01730657
    2
 MD step:        4350 time   10.522146820296751     
 H      0.40229662     -0.26503041     -0.10381888      0.03858102     -0.02641066      0.03258257
 H     -0.08451726      0.16081087      0.26548099     -0.00838002      0.01650588     -0.01721859
    2
 MD step:        4400 time   10.643091036622000     
 H      0.40695854     -0.26822050     -0.09987525      0.03848880     -0.02632556      0.03264434
 H     -0.08552655      0.16280303      0.26339554     -0.00828780      0.01642078     -0.01728035
    2
 MD step:        4450 time   10.764035252947250     
 H      0.41160196     -0.27139456     -0.09591883      0.03828284     -0.02615170      0.03279318
 H     -0.08651732      0.16477917      0.26129730     -0.00808184      0.01624693     -0.01742920
    2
 MD step:        4500 time   10.884979469272501     
 H      0.41621618     -0.27454399     -0.09194149      0.03801286     -0.02593235      0.03296995
 H     -0.08747891      0.16673067      0.25917815     -0.00781186      0.01602758     -0.01760597
    2
 MD step:        4550 time   11.005923685597750     
 H      0.42079476     -0.27766520     -0.08794122      0.03769534     -0.02567469      0.03317178
 H     -0.08840485      0.16865395      0.25703606     -0.00749434      0.01576991     -0.01780779
    2
 MD step:        4600 time   11.126867901923001     
 H      0.42533110     -0.28075350     -0.08391712      0.03731237     -0.02537387      0.03339275
 H     -0.08928856      0.17054433      0.25487015     -0.00711137      0.01546910     -0.01802877
    2
 MD step:        4650 time   11.247812118248250     
 H      0.42981504     -0.28379917     -0.07986395      0.03681789     -0.02497568      0.03365472
 H     -0.09011987      0.17239207      0.25267516     -0.00661689      0.01507090     -0.01829073
    2
 MD step:        4700 time   11.368756334573501     
 H      0.43423124     -0.28678771     -0.07577216      0.03618592     -0.02443175      0.03401201
 H     -0.09088342      0.17418269      0.25044156     -0.00598492      0.01452697     -0.01864802
    2
 MD step:        4750 time   11.489700550898750     
 H      0.43856262     -0.28970318     -0.07163147      0.03541668     -0.02375621      0.03447103
 H     -0.09156217      0.17590023      0.24815905     -0.00521568      0.01385143     -0.01910704
    2
 MD step:        4800 time   11.610644767224001     
 H      0.44279364     -0.29253074     -0.06743194      0.03453457     -0.02298770      0.03498570
 H     -0.09214055      0.17752986      0.24581771     -0.00433357      0.01308292     -0.01962171
    2
 MD step:        4850 time   11.731588983549251     
 H      0.44691334     -0.29526098     -0.06316738      0.03358372     -0.02215783      0.03553048
 H     -0.09260762      0.17906218      0.24341133     -0.00338272      0.01225305     -0.02016649
    2
 MD step:        4900 time   11.852533199874500     
 H      0.45091574     -0.29789010     -0.05883719      0.03260134     -0.02131075      0.03607919
 H     -0.09295738      0.18049338      0.24093933     -0.00240034      0.01140597     -0.02071521
    2
 MD step:        4950 time   11.973477416199751     
 H      0.45479844     -0.30041689     -0.05444343      0.03159963     -0.02046893      0.03659020
 H     -0.09318744      0.18182224      0.23840375     -0.00139863      0.01056415     -0.02122621
    2
 MD step:        5000 time   12.094421632525000     
 H      0.45855906     -0.30283990     -0.04998784      0.03057543     -0.01960341      0.03707705
 H     -0.09329543      0.18304732      0.23580635     -0.00037443      0.00969863     -0.02171307
    2
 MD step:        5050 time   12.215365848850251     
 H      0.46219362     -0.30515641     -0.04547235      0.02951390     -0.01869023      0.03758184
 H     -0.09327736      0.18416591      0.23314904      0.00068710      0.00878545     -0.02221785
    2
 MD step:        5100 time   12.336310065175500     
 H      0.46569487     -0.30735932     -0.04089647      0.02837594     -0.01771487      0.03810501
 H     -0.09312596      0.18517090      0.23043135      0.00182506      0.00781009     -0.02274103
    2
 MD step:        5150 time   12.457254281500751     
 H      0.46905333     -0.30943852     -0.03625629      0.02715239     -0.01666015      0.03864020
 H     -0.09283179      0.18605216      0.22764935      0.00304861      0.00675537     -0.02327622
    2
 MD step:        5200 time   12.578198497826001     
 H      0.47225930     -0.31138454     -0.03154786      0.02585114     -0.01551591      0.03921553
 H     -0.09238513      0.18680026      0.22479911      0.00434986      0.00561113     -0.02385155
    2
 MD step:        5250 time   12.699142714151250     
 H      0.47530427     -0.31318941     -0.02676879      0.02449562     -0.01432175      0.03981484
 H     -0.09177746      0.18740720      0.22187823      0.00570538      0.00441697     -0.02445085
    2
 MD step:        5300 time   12.820086930476501     
 H      0.47818369     -0.31484850     -0.02191799      0.02311960     -0.01311676      0.04039762
 H     -0.09100423      0.18786837      0.21888561      0.00708140      0.00321198     -0.02503364
    2
 MD step:        5350 time   12.941031146801750     
 H      0.48089728     -0.31636229     -0.01699725      0.02176062     -0.01192451      0.04095943
 H     -0.09006519      0.18818424      0.21582305      0.00844038      0.00201973     -0.02559544
    2
 MD step:        5400 time   13.061975363127001     
 H      0.48344849     -0.31773513     -0.01201182      0.02043783     -0.01077716      0.04148403
 H     -0.08896377      0.18835914      0.21269581      0.00976317      0.00087239     -0.02612005
    2
 MD step:        5450 time   13.182919579452250     
 H      0.48584279     -0.31897230     -0.00696734      0.01916139     -0.00968939      0.04193793
 H     -0.08770543      0.18839839      0.20950952      0.01103961     -0.00021539     -0.02657395
    2
 MD step:        5500 time   13.303863795777501     
 H      0.48808613     -0.32007967     -0.00186932      0.01793223     -0.00863411      0.04234449
 H     -0.08629613      0.18830784      0.20626969      0.01226877     -0.00127066     -0.02698051
    2
 MD step:        5550 time   13.424808012102751     
 H      0.49018195     -0.32106091      0.00327678      0.01672574     -0.00758723      0.04274042
 H     -0.08473932      0.18809115      0.20298177      0.01347526     -0.00231755     -0.02737644
    2
 MD step:        5600 time   13.545752228428000     
 H      0.49213177     -0.32191637      0.00846753      0.01552297     -0.00654956      0.04310993
 H     -0.08303650      0.18774868      0.19964920      0.01467803     -0.00335522     -0.02774594
    2
 MD step:        5650 time   13.666696444753251     
 H      0.49393558     -0.32264432      0.01370233      0.01430767     -0.00549204      0.04346003
 H     -0.08118767      0.18727871      0.19627259      0.01589333     -0.00441274     -0.02809604
    2
 MD step:        5700 time   13.787640661078500     
 H      0.49559253     -0.32324312      0.01898078      0.01309530     -0.00441705      0.04381735
 H     -0.07919199      0.18667958      0.19285232      0.01710570     -0.00548773     -0.02845337
    2
 MD step:        5750 time   13.908584877403751     
 H      0.49710430     -0.32371352      0.02430146      0.01191131     -0.00336665      0.04416497
 H     -0.07705113      0.18595206      0.18938983      0.01828969     -0.00653813     -0.02880098
    2
 MD step:        5800 time   14.029529093729000     
 H      0.49847632     -0.32405989      0.02966237      0.01079178     -0.00237819      0.04447590