    2
 MD step:           0 time   0.0000000000000000     
 H      0.00000000      0.00000000     -0.37000000      0.01311648     -0.03065324     -0.00368621
 H      0.00000000      0.00000000      0.37000000     -0.03015212      0.02264110     -0.00070009
    2
 MD step:          50 time  0.12094421632525000     
 H      0.00158638     -0.00370735     -0.37045246      0.01311692     -0.03065364     -0.00379401
 H     -0.00364674      0.00273833      0.36992196     -0.03015256      0.02264150     -0.00059229
    2
 MD step:         100 time  0.24188843265050000     
 H      0.00317283     -0.00741481     -0.37091689      0.01311758     -0.03065503     -0.00388215
 H     -0.00729356      0.00547676      0.36985589     -0.03015322      0.02264290     -0.00050415
    2
 MD step:         150 time  0.36283264897575002     
 H      0.00475939     -0.01112244     -0.37139047      0.01311861     -0.03065643     -0.00394459
 H     -0.01094048      0.00821538      0.36979898     -0.03015425      0.02264429     -0.00044171
    2
 MD step:         200 time  0.48377686530100000     
 H      0.00634606     -0.01483023     -0.37186982      0.01311916     -0.03065761     -0.00397682
 H     -0.01458750      0.01095415      0.36974783     -0.03015480      0.02264547     -0.00040948
    2
 MD step:         250 time  0.60472108162625005     
 H      0.00793273     -0.01853812     -0.37235103      0.01311887     -0.03065770     -0.00397472
 H     -0.01823454      0.01369301      0.36969854     -0.03015451      0.02264557     -0.00041158
    2
 MD step:         300 time  0.72566529795150003     
 H      0.00951929     -0.02224591     -0.37282973      0.01311684     -0.03065622     -0.00393461
 H     -0.02188146      0.01643179      0.36964674     -0.03015247      0.02264408     -0.00045169
    2
 MD step:         350 time  0.84660951427675002     
 H      0.01110546     -0.02595339     -0.37330111      0.01311269     -0.03065200     -0.00385330
 H     -0.02552799      0.01917024      0.36958762     -0.03014833      0.02263986     -0.00053300
    2
 MD step:         400 time  0.96755373060200001     
 H      0.01269099     -0.02966012     -0.37376003      0.01310591     -0.03064396     -0.00372813
 H     -0.02917389      0.02190795      0.36951604     -0.03014155      0.02263182     -0.00065817
    2
 MD step:         450 time   1.0884979469272500     
 H      0.01427543     -0.03336568     -0.37420104      0.01309462     -0.03063233     -0.00355697
 H     -0.03281869      0.02464449      0.36942656     -0.03013026      0.02262020     -0.00082933
    2
 MD step:         500 time   1.2094421632525001     
 H      0.01585830     -0.03706946     -0.37461850      0.01307981     -0.03061446     -0.00333825
 H     -0.03646192      0.02737925      0.36931352     -0.03011545      0.02260232     -0.00104805
    2
 MD step:         550 time   1.3303863795777500     
 H      0.01743905     -0.04077073     -0.37500657      0.01305928     -0.03059089     -0.00307095
 H     -0.04010304      0.03011150      0.36917109     -0.03009492      0.02257876     -0.00131535
    2
 MD step:         600 time   1.4513305959030001     
 H      0.01901695     -0.04446876     -0.37535935      0.01303292     -0.03056012     -0.00275461
 H     -0.04374130      0.03284050      0.36899338     -0.03006856      0.02254798     -0.00163169
    2
 MD step:         650 time   1.5722748122282502     
 H      0.02059132     -0.04816254     -0.37567091      0.01300025     -0.03052114     -0.00238931
 H     -0.04737602      0.03556526      0.36877443     -0.03003589      0.02250900     -0.00199699
    2
 MD step:         700 time   1.6932190285535000     
 H      0.02216124     -0.05185114     -0.37593535      0.01295979     -0.03047402     -0.00197565
 H     -0.05100631      0.03828485      0.36850838     -0.02999543      0.02246188     -0.00241065
    2
 MD step:         750 time   1.8141632448787501     
 H      0.02372588     -0.05553342     -0.37614689      0.01291264     -0.03041641     -0.00151474
 H     -0.05463131      0.04099810      0.36818942     -0.02994828      0.02240427     -0.00287156
    2
 MD step:         800 time   1.9351074612040000     
 H      0.02528426     -0.05920819     -0.37629990      0.01285584     -0.03035017     -0.00100815
 H     -0.05825005      0.04370385      0.36781194     -0.02989148      0.02233803     -0.00337815
    2
 MD step:         850 time   2.0560516775292501     
 H      0.02683527     -0.06287428     -0.37638899      0.01279152     -0.03027226     -0.00045787
 H     -0.06186143      0.04640092      0.36737052     -0.02982716      0.02226013     -0.00392843
    2
 MD step:         900 time   2.1769958938545000     
 H      0.02837800     -0.06653028     -0.37640899      0.01271794     -0.03018371      0.00013367
 H     -0.06546452      0.04908789      0.36686003     -0.02975358      0.02217158     -0.00451997
    2
 MD step:         950 time   2.2979401101797499     
 H      0.02991119     -0.07017496     -0.37635510      0.01263451     -0.03008463      0.00076366
 H     -0.06905807      0.05176356      0.36627565     -0.02967014      0.02207250     -0.00514996
    2
 MD step:        1000 time   2.4188843265050002     
 H      0.03143383     -0.07380687     -0.37622285      0.01254302     -0.02997293      0.00142901
 H     -0.07264108      0.05442645      0.36561289     -0.02957866      0.02196080     -0.00581532
    2
 MD step:        1050 time   2.5398285428302501     
 H      0.03294474     -0.07742469     -0.37600815      0.01244063     -0.02985143      0.00212634
 H     -0.07621235      0.05707525      0.36486770     -0.02947627      0.02183930     -0.00651264
    2
 MD step:        1100 time   2.6607727591554999     
 H      0.03444279     -0.08102705     -0.37570737      0.01233064     -0.02971702      0.00285199
 H     -0.07977075      0.05970858      0.36403642     -0.02936628      0.02170489     -0.00723829
    2
 MD step:        1150 time   2.7817169754807503     
 H      0.03592695     -0.08461252     -0.37531731      0.01221028     -0.02957291      0.00360207
 H     -0.08331528      0.06232503      0.36311586     -0.02924592      0.02156077     -0.00798837
    2
 MD step:        1200 time   2.9026611918060001     
 H      0.03739598     -0.08817994     -0.37483525      0.01208157     -0.02941774      0.00437257
 H     -0.08684467      0.06492343      0.36210330     -0.02911721      0.02140561     -0.00875887
    2
 MD step:        1250 time   3.0236054081312500     
 H      0.03884905     -0.09172788     -0.37425898      0.01194535     -0.02925158      0.00515933
 H     -0.09035810      0.06750235      0.36099653     -0.02898099      0.02123944     -0.00954563
    2
 MD step:        1300 time   3.1445496244565003     
 H      0.04028502     -0.09525527     -0.37358678      0.01179948     -0.02907770      0.00595807
 H     -0.09385443      0.07006072      0.35979384     -0.02883512      0.02106557     -0.01034437
    2
 MD step:        1350 time   3.2654938407817502     
 H      0.04170303     -0.09876096     -0.37281748      0.01164859     -0.02889282      0.00676446
 H     -0.09733281      0.07259739      0.35849404     -0.02868423      0.02088069     -0.01115076
    2
 MD step:        1400 time   3.3864380571070001     
 H      0.04310230     -0.10224390     -0.37195041      0.01148911     -0.02870211      0.00757410
 H     -0.10079244      0.07511131      0.35709647     -0.02852475      0.02068997     -0.01196040
    2
 MD step:        1450 time   3.5073822734322500     
 H      0.04448196     -0.10570332     -0.37098544      0.01132534     -0.02850302      0.00838263
 H     -0.10423246      0.07760170      0.35560100     -0.02836098      0.02049089     -0.01276893
    2
 MD step:        1500 time   3.6283264897575003     
 H      0.04584157     -0.10913823     -0.36992297      0.01115649     -0.02829834      0.00918567
 H     -0.10765243      0.08006759      0.35400803     -0.02819213      0.02028621     -0.01357198
    2
 MD step:        1550 time   3.7492707060827501     
 H      0.04718036     -0.11254824     -0.36876392      0.01098253     -0.02809022      0.00997896
 H     -0.11105159      0.08250858      0.35231849     -0.02801817      0.02007809     -0.01436526
    2
 MD step:        1600 time   3.8702149224080000     
 H      0.04849812     -0.11593267     -0.36750973      0.01080809     -0.02787635      0.01075831
 H     -0.11442971      0.08492399      0.35053380     -0.02784373      0.01986422     -0.01514461
    2
 MD step:        1650 time   3.9911591387332503     
 H      0.04979451     -0.11929126     -0.36616234      0.01062921     -0.02766315      0.01151963
 H     -0.11778646      0.08731356      0.34865591     -0.02766485      0.01965102     -0.01590593
    2
 MD step:        1700 time   4.1121033550585002     
 H      0.05106930     -0.12262392     -0.36472415      0.01045207     -0.02744701      0.01225901
 H     -0.12112162      0.08967720      0.34668723     -0.02748771      0.01943488     -0.01664531
    2
 MD step:        1750 time   4.2330475713837501     
 H      0.05232269     -0.12593049     -0.36319806      0.01027407     -0.02723319      0.01297274
 H     -0.12443536      0.09201474      0.34463064     -0.02730971      0.01922106     -0.01735904
    2
 MD step:        1800 time   4.3539917877090000     
 H      0.05355457     -0.12921140     -0.36158737      0.01009806     -0.02702157      0.01365735
 H     -0.12772760      0.09432663      0.34248945     -0.02713370      0.01900944     -0.01804365
    2
 MD step:        1850 time   4.4749360040342498     
 H      0.05476549     -0.13246677     -0.35989581      0.00992662     -0.02681236      0.01430955
 H     -0.13099889      0.09661298      0.34026739     -0.02696226      0.01880022     -0.01869585
    2
 MD step:        1900 time   4.5958802203594997     
 H      0.05595572     -0.13569737     -0.35812748      0.00975662     -0.02661151      0.01492633
 H     -0.13424948      0.09887457      0.33796857     -0.02679226      0.01859938     -0.01931264
    2
 MD step:        1950 time   4.7168244366847505     
 H      0.05712591     -0.13890389     -0.35628684      0.00959555     -0.02641429      0.01550508
 H     -0.13748003      0.10111206      0.33559742     -0.02663119      0.01840216     -0.01989139
    2
 MD step:        2000 time   4.8377686530100004     
 H      0.05827691     -0.14208716     -0.35437861      0.00943864     -0.02622821      0.01604344
 H     -0.14069139      0.10332631      0.33315870     -0.02647428      0.01821607     -0.02042974
    2
 MD step:        2050 time   4.9587128693352502     
 H      0.05940939     -0.14524853     -0.35240782      0.00929097     -0.02605080      0.01653944
 H     -0.14388424      0.10551866      0.33065741     -0.02632661      0.01803867     -0.02092574
    2
 MD step:        2100 time   5.0796570856605001     
 H      0.06052467     -0.14838899     -0.35037968      0.00915270     -0.02588443      0.01699151
 H     -0.14705988      0.10769010      0.32809878     -0.02618834      0.01787229     -0.02137781
    2
 MD step:        2150 time   5.2006013019857500     
 H      0.06162364     -0.15151027     -0.34829959      0.00902275     -0.02573247      0.01739851
 H     -0.15021921      0.10984236      0.32548818     -0.02605839      0.01772034     -0.02178482
    2
 MD step:        2200 time   5.3215455183109999     
 H      0.06270778     -0.15461377     -0.34617303      0.00890701     -0.02559114      0.01775974
 H     -0.15336371      0.11197684      0.32283113     -0.02594265      0.01757901     -0.02214604
    2
 MD step:        2250 time   5.4424897346362506     
 H      0.06377843     -0.15770127     -0.34400557      0.00879947     -0.02546834      0.01807489
 H     -0.15649472      0.11409531      0.32013317     -0.02583511      0.01745620     -0.02246119
    2
 MD step:        2300 time   5.5634339509615005     
 H      0.06483694     -0.16077473     -0.34180277      0.00870758     -0.02535807      0.01834425
 H     -0.15961360      0.11619976      0.31739987     -0.02574322      0.01734594     -0.02273055
    2
 MD step:        2350 time   5.6843781672867504     
 H      0.06588515     -0.16383582     -0.33957013      0.00862752     -0.02526541      0.01856847
 H     -0.16272217      0.11829182      0.31463673     -0.02566316      0.01725327     -0.02295478
    2
 MD step:        2400 time   5.8053223836120003     
 H      0.06692433     -0.16688687     -0.33731304      0.00856015     -0.02519033      0.01874870
 H     -0.16582171      0.12037385      0.31184915     -0.02559579      0.01717819     -0.02313500
    2
 MD step:        2450 time   5.9262665999372501     
 H      0.06795644     -0.16992962     -0.33503674      0.00850898     -0.02512968      0.01888660
 H     -0.16891418      0.12244757      0.30904235     -0.02554462      0.01711754     -0.02327290
    2
 MD step:        2500 time   6.0472108162625000     
 H      0.06898292     -0.17296631     -0.33274622      0.00846793     -0.02508952      0.01898426
 H     -0.17200103      0.12451525      0.30622133     -0.02550357      0.01707739     -0.02337056
    2
 MD step:        2550 time   6.1681550325877499     
 H      0.07000547     -0.17599896     -0.33044619      0.00844408     -0.02506225      0.01904424
 H     -0.17508393      0.12657887      0.30339080     -0.02547972      0.01705012     -0.02343054
    2
 MD step:        2600 time   6.2890992489130007     
 H      0.07102581     -0.17902939     -0.32814104      0.00843013     -0.02505423      0.01906942
 H     -0.17816464      0.12864029      0.30055516     -0.02546577      0.01704210     -0.02345573
    2
 MD step:        2650 time   6.4100434652382505     
 H      0.07204519     -0.18205983     -0.32583478      0.00842987     -0.02506012      0.01906321
 H     -0.18124438      0.13070170      0.29771840     -0.02546551      0.01704798     -0.02344951
    2
 MD step:        2700 time   6.5309876815635004     
 H      0.07306541     -0.18509167     -0.32353099      0.00844205     -0.02507921      0.01902924
 H     -0.18432497      0.13276452      0.29488411     -0.02547769      0.01706708     -0.02341554
    2
 MD step:        2750 time   6.6519318978887503     
 H      0.07408747     -0.18812689     -0.32123279      0.00846138     -0.02511437      0.01897141
 H     -0.18740739      0.13483072      0.29205541     -0.02549702      0.01710223     -0.02335771
    2
 MD step:        2800 time   6.7728761142140002     
 H      0.07511271     -0.19116677     -0.31894281      0.00849400     -0.02515645      0.01889399
 H     -0.19049299      0.13690158      0.28923494     -0.02552964      0.01714432     -0.02328029
    2
 MD step:        2850 time   6.8938203305392500     
 H      0.07614216     -0.19421253     -0.31666317      0.00853005     -0.02521200      0.01880129
 H     -0.19358280      0.13897832      0.28642480     -0.02556569      0.01719987     -0.02318759
    2
 MD step:        2900 time   7.0147645468644999     
 H      0.07717641     -0.19726541     -0.31439543      0.00857477     -0.02527200      0.01869780
 H     -0.19667742      0.14106217      0.28362656     -0.02561041      0.01725986     -0.02308411
    2
 MD step:        2950 time   7.1357087631897507     
 H      0.07821641     -0.20032579     -0.31214064      0.00862247     -0.02533799      0.01858805
 H     -0.19977777      0.14315354      0.28084127     -0.02565811      0.01732586     -0.02297436
    2
 MD step:        3000 time   7.2566529795150005     
 H      0.07926210     -0.20339454     -0.30989927      0.00867086     -0.02540779      0.01847660
 H     -0.20288383      0.14525327      0.27806940     -0.02570650      0.01739565     -0.02286290
    2
 MD step:        3050 time   7.3775971958402504     
 H      0.08031396     -0.20647146     -0.30767125      0.00872256     -0.02547406      0.01836789
 H     -0.20599605      0.14736116      0.27531089     -0.02575820      0.01746193     -0.02275419
    2
 MD step:        3100 time   7.4985414121655003     
 H      0.08137164     -0.20955657     -0.30545601      0.00876715     -0.02554244      0.01826618
 H     -0.20911409      0.14947725      0.27256514     -0.02580279      0.01753031     -0.02265248
    2
 MD step:        3150 time   7.6194856284907502     
 H      0.08243469     -0.21264941     -0.30325242      0.00881182     -0.02560062      0.01817568
 H     -0.21223751      0.15160107      0.26983106     -0.02584746      0.01758849     -0.02256198
    2
 MD step:        3200 time   7.7404298448160000     
 H      0.08350269     -0.21574888     -0.30105891      0.00884672     -0.02565349      0.01810018
 H     -0.21536587      0.15373152      0.26710706     -0.02588236      0.01764135     -0.02248648
    2
 MD step:        3250 time   7.8613740611412499     
 H      0.08457427     -0.21885423     -0.29887345      0.00887302     -0.02569486      0.01804326
 H     -0.21849781      0.15586785      0.26439109     -0.02590866      0.01768273     -0.02242956
    2
 MD step:        3300 time   7.9823182774665007     
 H      0.08564863     -0.22196351     -0.29669358      0.00889014     -0.02572042      0.01800815
 H     -0.22163253      0.15800810      0.26168073     -0.02592578      0.01770828     -0.02239445
    2
 MD step:        3350 time   8.1032624937917497     
 H      0.08672395     -0.22507524     -0.29451649      0.00888995     -0.02573358      0.01799768
 H     -0.22476821      0.16015082      0.25897314     -0.02592559      0.01772145     -0.02238398
    2
 MD step:        3400 time   8.2242067101170004     
 H      0.08779865     -0.22818714     -0.29233906      0.00887945     -0.02572287      0.01801429
 H     -0.22790327      0.16229370      0.25626521     -0.02591509      0.01771074     -0.02240059
    2
 MD step:        3450 time   8.3451509264422494     
 H      0.08887084     -0.23129671     -0.29015787      0.00884692     -0.02569590      0.01805994
 H     -0.23103582      0.16443425      0.25355353     -0.02588256      0.01768377     -0.02244624
    2
 MD step:        3500 time   8.4660951427675002     
 H      0.08993802     -0.23440158     -0.28796933      0.00879865     -0.02564249      0.01813628
 H     -0.23416337      0.16657009      0.25083448     -0.02583429      0.01763036     -0.02252258
    2
 MD step:        3550 time   8.5870393590927510     
 H      0.09099829     -0.23749834     -0.28576964      0.00872970     -0.02556425      0.01824439
 H     -0.23728400      0.16869783      0.24810429     -0.02576534      0.01755212     -0.02263069
    2
 MD step:        3600 time   8.7079835754179999     
 H      0.09204861     -0.24058435     -0.28355492      0.00863631     -0.02546210      0.01838492
 H     -0.24039469      0.17081482      0.24535907     -0.02567195      0.01744996     -0.02277122
    2
 MD step:        3650 time   8.8289277917432507     
 H      0.09308665     -0.24365593     -0.28132122      0.00852500     -0.02532692      0.01855820
 H     -0.24349309      0.17291738      0.24259488     -0.02556064      0.01731479     -0.02294450
    2
 MD step:        3700 time   8.9498720080684997     
 H      0.09410947     -0.24670975     -0.27906459      0.00838453     -0.02516819      0.01876400
 H     -0.24657627      0.17500218      0.23980775     -0.02542017      0.01715606     -0.02315031
    2
 MD step:        3750 time   9.0708162243937505     
 H      0.09511405     -0.24974237     -0.27678113      0.00822463     -0.02497476      0.01900181
 H     -0.24964121      0.17706578      0.23699380     -0.02526027      0.01696263     -0.02338811
    2
 MD step:        3800 time   9.1917604407189994     
 H      0.09609778     -0.25274979     -0.27446702      0.00803727     -0.02475389      0.01927064
 H     -0.25268530      0.17910417      0.23414919     -0.02507291      0.01674175     -0.02365694
    2
 MD step:        3850 time   9.3127046570442502     
 H      0.09705717     -0.25572882     -0.27211858      0.00782521     -0.02450247      0.01956929
 H     -0.25570506      0.18111418      0.23127025     -0.02486085      0.01649034     -0.02395559
    2
 MD step:        3900 time   9.4336488733695010     
 H      0.09798978     -0.25867526     -0.26973230      0.00759174     -0.02421752      0.01989616
 H     -0.25869802      0.18309160      0.22835347     -0.02462738      0.01620538     -0.02428246
    2
 MD step:        3950 time   9.5545930896947500     
 H      0.09889226     -0.26158585     -0.26730487      0.00732847     -0.02390835      0.02024934
 H     -0.26166086      0.18503317      0.22539555     -0.02436411      0.01589622     -0.02463564
    2
 MD step:        4000 time   9.6755373060200007     
 H      0.09976183     -0.26445690     -0.26483324      0.00704788     -0.02356367      0.02062683
 H     -0.26459080      0.18693520      0.22239342     -0.02408352      0.01555154     -0.02501314
    2
 MD step:        4050 time   9.7964815223452497     
 H      0.10059588     -0.26728476     -0.26231460      0.00673949     -0.02319590      0.02102628
 H     -0.26748521      0.18879404      0.21934428     -0.02377513      0.01518377     -0.02541258
    2
 MD step:        4100 time   9.9174257386705005     
 H      0.10139128     -0.27006652     -0.25974644      0.00641181     -0.02279883      0.02144521
 H     -0.27034097      0.19060678      0.21624562     -0.02344745      0.01478669     -0.02583151
    2
 MD step:        4150 time   10.038369954995749     
 H      0.10214603     -0.27279847     -0.25712657      0.00606433     -0.02237573      0.02188103
 H     -0.27315609      0.19236971      0.21309525     -0.02309997      0.01436360     -0.02626733
    2
 MD step:        4200 time   10.159314171321000     
 H      0.10285721     -0.27547819     -0.25445310      0.00569405     -0.02193281      0.02233101
 H     -0.27592763      0.19408041      0.20989129     -0.02272969      0.01392067     -0.02671731
    2
 MD step:        4250 time   10.280258387646251     
 H      0.10352296     -0.27810258     -0.25172449      0.00531232     -0.02146221      0.02279241
 H     -0.27865374      0.19573577      0.20663218     -0.02234796      0.01345008     -0.02717871
    2
 MD step:        4300 time   10.401202603971500     
 H      0.10414122     -0.28066922     -0.24893954      0.00490823     -0.02097894      0.02326231
 H     -0.28133236      0.19733340      0.20331673     -0.02194387      0.01296681     -0.02764861
    2
 MD step:        4350 time   10.522146820296751     
 H      0.10470993     -0.28317617     -0.24609738      0.00449559     -0.02047327      0.02373797
 H     -0.28396143      0.19887132      0.19994407     -0.02153123      0.01246113     -0.02812428
    2
 MD step:        4400 time   10.643091036622000     
 H      0.10522805     -0.28562100     -0.24319748      0.00406895     -0.01995522      0.02421653
 H     -0.28653992      0.20034713      0.19651368     -0.02110459      0.01194308     -0.02860283
    2
 MD step:        4450 time   10.764035252947250     
 H      0.10569370     -0.28800270     -0.24023968      0.00363130     -0.01942663      0.02469517
 H     -0.28906593      0.20175981      0.19302537     -0.02066694      0.01141450     -0.02908147
    2
 MD step:        4500 time   10.884979469272501     
 H      0.10610637     -0.29031946     -0.23722411      0.00319079     -0.01888432      0.02517117
 H     -0.29153896      0.20310755      0.18947931     -0.02022643      0.01087219     -0.02955747
    2
 MD step:        4550 time   11.005923685597750     
 H      0.10646497     -0.29257069     -0.23415128      0.00273866     -0.01834228      0.02564185
 H     -0.29395792      0.20438976      0.18587598     -0.01977430      0.01033015     -0.03002815
    2
 MD step:        4600 time   11.126867901923001     
 H      0.10676906     -0.29475576     -0.23102196      0.00229063     -0.01778994      0.02610473
 H     -0.29632238      0.20560580      0.18221616     -0.01932627      0.00977780     -0.03049103
    2
 MD step:        4650 time   11.247812118248250     
 H      0.10701877     -0.29687413     -0.22783726      0.00183723     -0.01724244      0.02655727
 H     -0.29863245      0.20675515      0.17850097     -0.01887287      0.00923031     -0.03094357
    2
 MD step:        4700 time   11.368756334573501     
 H      0.10721365     -0.29892651     -0.22459857      0.00138783     -0.01669579      0.02699721
 H     -0.30088769      0.20783852      0.17473178     -0.01842347      0.00868365     -0.03138351
    2
 MD step:        4750 time   11.489700550898750     
 H      0.10735475     -0.30091277     -0.22130754      0.00094500     -0.01615283      0.02742243
 H     -0.30308916      0.20885575      0.17091025     -0.01798064      0.00814070     -0.03180873
    2
 MD step:        4800 time   11.610644767224001     
 H      0.10744225     -0.30283432     -0.21796608      0.00050414     -0.01562379      0.02783092
 H     -0.30523702      0.20980828      0.16703829     -0.01753978      0.00761165     -0.03221722
    2
 MD step:        4850 time   11.731588983549251     
 H      0.10747745     -0.30469209     -0.21457631      0.00007967     -0.01509951      0.02822092
 H     -0.30733257      0.21069703      0.16311802     -0.01711531      0.00708738     -0.03260722
    2
 MD step:        4900 time   11.852533199874500     
 H      0.10746164     -0.30648768     -0.21114058     -0.00033989     -0.01459694      0.02859077
 H     -0.30937712      0.21152360      0.15915179     -0.01669575      0.00658481     -0.03297707
    2
 MD step:        4950 time   11.973477416199751     
 H      0.10739606     -0.30822336     -0.20766140     -0.00074034     -0.01410682      0.02893916
 H     -0.31137191      0.21229026      0.15514212     -0.01629530      0.00609469     -0.03332546
    2
 MD step:        5000 time   12.094421632525000     
 H      0.10728315     -0.30990084     -0.20414144     -0.00112584     -0.01363838      0.02926486
 H     -0.31331936      0.21299872      0.15109166     -0.01590980      0.00562624     -0.03365116
    2
 MD step:        5050 time   12.215365848850251     
 H      0.10712433     -0.31152340     -0.20058352     -0.00149560     -0.01319550      0.02956692
 H     -0.31522091      0.21365225      0.14700324     -0.01554004      0.00518337     -0.03395323
    2
 MD step:        5100 time   12.336310065175500     
 H      0.10692250     -0.31309339     -0.19699053     -0.00183922     -0.01277196      0.02984471
 H     -0.31707944      0.21425322      0.14287975     -0.01519642      0.00475982     -0.03423101
    2
 MD step:        5150 time   12.457254281500751     
 H      0.10667997     -0.31461427     -0.19336543     -0.00216790     -0.01238315      0.03009765
 H     -0.31889726      0.21480508      0.13872416     -0.01486774      0.00437102     -0.03448396
    2
 MD step:        5200 time   12.578198497826001     
 H      0.10639941     -0.31608957     -0.18971126     -0.00246618     -0.01201703      0.03032559
 H     -0.32067708      0.21531136      0.13453949     -0.01456946      0.00400490     -0.03471190
    2
 MD step:        5250 time   12.699142714151250     
 H      0.10608420     -0.31752255     -0.18603103     -0.00274391     -0.01168664      0.03052851
 H     -0.32242222      0.21577532      0.13032876     -0.01429173      0.00367450     -0.03491482
    2
 MD step:        5300 time   12.820086930476501     
 H      0.10573680     -0.31891768     -0.18232776     -0.00299449     -0.01138773      0.03070674
 H     -0.32413519      0.21620143      0.12609499     -0.01404115      0.00337559     -0.03509304
    2
 MD step:        5350 time   12.941031146801750     
 H      0.10536112     -0.32027830     -0.17860440     -0.00321495     -0.01111936      0.03086076
 H     -0.32581986      0.21659303      0.12184114     -0.01382069      0.00310722     -0.03524706
    2
 MD step:        5400 time   13.061975363127001     
 H      0.10495993     -0.32160905     -0.17486385     -0.00341408     -0.01089185      0.03099126
 H     -0.32747903      0.21695476      0.11757009     -0.01362156      0.00287971     -0.03537756
    2
 MD step:        5450 time   13.182919579452250     
 H      0.10453681     -0.32291391     -0.17110888     -0.00357769     -0.01069132      0.03109930
 H     -0.32911629      0.21729059      0.11328462     -0.01345795      0.00267918     -0.03548560
    2
 MD step:        5500 time   13.303863795777501     
 H      0.10409531     -0.32419691     -0.16734215     -0.00372000     -0.01053221      0.03118601
 H     -0.33073514      0.21760457      0.10898739     -0.01331564      0.00252007     -0.03557231
    2
 MD step:        5550 time   13.424808012102751     
 H      0.10363830     -0.32546271     -0.16356615     -0.00383093     -0.01040352      0.03125277
 H     -0.33233849      0.21790135      0.10468089     -0.01320471      0.00239138     -0.03563907
    2
 MD step:        5600 time   13.545752228428000     
 H      0.10316972     -0.32671476     -0.15978321     -0.00391522     -0.01030852      0.03130111
 H     -0.33393028      0.21818438      0.10036745     -0.01312042      0.00229638     -0.03568741
    2
 MD step:        5650 time   13.666696444753251     
 H      0.10269211     -0.32795770     -0.15599545     -0.00397718     -0.01024928      0.03133272
 H     -0.33551303      0.21845830      0.09604920     -0.01305846      0.00223715     -0.03571902
    2
 MD step:        5700 time   13.787640661078500     
 H      0.10220901     -0.32919483     -0.15220479     -0.00400816     -0.01021402      0.03134942
 H     -0.33709029      0.21872641      0.09172804     -0.01302748      0.00220188     -0.03573572
    2
 MD step:        5750 time   13.908584877403751     
 H      0.10172310     -0.33042992     -0.14841291     -0.00402407     -0.01021514      0.03135304
 H     -0.33866474      0.21899247      0.08740567     -0.01301157      0.00220301     -0.03573935
    2
 MD step:        5800 time   14.029529093729000     
 H      0.10123682     -0.33166644     -0.14462129     -0.00401252     -0.01023543      0.03134563