    2
 MD step:           0 time   0.0000000000000000     
 H      0.00000000      0.00000000     -0.37000000     -0.02380787      0.00133686      0.01695818
 H      0.00000000      0.00000000      0.37000000      0.01416150     -0.05343380     -0.00097754
    2
 MD step:          50 time  0.12094421632525000     
 H     -0.00287954      0.00014721     -0.36800301     -0.02381164      0.00092318      0.01566335
 H      0.00171286     -0.00644803      0.36993577      0.01416527     -0.05302012      0.00031729
    2
 MD step:         100 time  0.24188843265050000     
 H     -0.00576111      0.00023986     -0.36631884     -0.02384849      0.00037648      0.01114396
 H      0.00342776     -0.01284150      0.37018437      0.01420212     -0.05247342      0.00483668
    2
 MD step:         150 time  0.36283264897575002     
 H     -0.00865117      0.00024399     -0.36540025     -0.02395797     -0.00012130      0.00330020
 H      0.00515115     -0.01914646      0.37119855      0.01431160     -0.05197564      0.01268044
    2
 MD step:         200 time  0.48377686530100000     
 H     -0.01155892      0.00017152     -0.36558778     -0.02413900     -0.00060498     -0.00616424
 H      0.00689223     -0.02537482      0.37331885      0.01449262     -0.05149196      0.02214488
    2
 MD step:         250 time  0.60472108162625005     
 H     -0.01448987      0.00006790     -0.36687640     -0.02433045     -0.00094518     -0.01442948
 H      0.00865650     -0.03157202      0.37654023      0.01468407     -0.05115176      0.03041012
    2
 MD step:         300 time  0.72566529795150003     
 H     -0.01744074     -0.00003038     -0.36893469     -0.02445595     -0.00091558     -0.01919248
 H      0.01044070     -0.03777456      0.38053129      0.01480958     -0.05118136      0.03517312
    2
 MD step:         350 time  0.84660951427675002     
 H     -0.02040112     -0.00011990     -0.37132927     -0.02448364     -0.00071039     -0.02022347
 H      0.01223441     -0.04398586      0.38485863      0.01483726     -0.05138655      0.03620411
    2
 MD step:         400 time  0.96755373060200001     
 H     -0.02336053     -0.00021750     -0.37374926     -0.02445104     -0.00086101     -0.01964611
 H      0.01402714     -0.05018909      0.38921138      0.01480467     -0.05123593      0.03562674
    2
 MD step:         450 time   1.0884979469272500     
 H     -0.02631676     -0.00034422     -0.37613737     -0.02444615     -0.00139776     -0.02011434
 H      0.01581670     -0.05636319      0.39353226      0.01479978     -0.05069918      0.03609498
    2
 MD step:         500 time   1.2094421632525001     
 H     -0.02927966     -0.00052603     -0.37869862     -0.02457524     -0.00183342     -0.02313422
 H      0.01761293     -0.06248220      0.39802628      0.01492886     -0.05026352      0.03911486
    2
 MD step:         550 time   1.3303863795777500     
 H     -0.03226880     -0.00078115     -0.38180405     -0.02490625     -0.00210786     -0.02910250
 H      0.01943540     -0.06852791      0.40306447      0.01525987     -0.04998908      0.04508314
    2
 MD step:         600 time   1.4513305959030001     
 H     -0.03530916     -0.00109602     -0.38585085     -0.02544003     -0.00260792     -0.03811928
 H      0.02130909     -0.07451387      0.40904404      0.01579366     -0.04948902      0.05409991
    2
 MD step:         650 time   1.5722748122282502     
 H     -0.03842718     -0.00143410     -0.39116803     -0.02614471     -0.00317396     -0.04975983
 H      0.02326043     -0.08047661      0.41629399      0.01649834     -0.04892298      0.06574047
    2
 MD step:         700 time   1.6932190285535000     
 H     -0.04164640     -0.00177688     -0.39799607     -0.02705467     -0.00308241     -0.06333474
 H      0.02531298     -0.08643465      0.42505479      0.01740830     -0.04901453      0.07931538
    2
 MD step:         750 time   1.8141632448787501     
 H     -0.04498600     -0.00213125     -0.40652586     -0.02821463     -0.00249884     -0.07842651
 H      0.02748591     -0.09238110      0.43551735      0.01856825     -0.04959810      0.09440715
    2
 MD step:         800 time   1.9351074612040000     
 H     -0.04846784     -0.00247860     -0.41695342     -0.02949530     -0.00257451     -0.09449252
 H      0.02980107     -0.09833458      0.44787767      0.01984893     -0.04952242      0.11047316
    2
 MD step:         850 time   2.0560516775292501     
 H     -0.05213071     -0.00275826     -0.42956296     -0.03103103     -0.00259310     -0.11336686
 H      0.03229727     -0.10435574      0.46241997      0.02138466     -0.04950384      0.12934750
    2
 MD step:         900 time   2.1769958938545000     
 H     -0.05601010     -0.00295838     -0.44457276     -0.03323600     -0.00074445     -0.13655556
 H      0.03500999     -0.11045645      0.47936255      0.02358963     -0.05135248      0.15253621
    2
 MD step:         950 time   2.2979401101797499     
 H     -0.06015926     -0.00299733     -0.46239044     -0.03543995      0.00093006     -0.15755466
 H      0.03799247     -0.11671832      0.49911299      0.02579358     -0.05302701      0.17353530
    2
 MD step:        1000 time   2.4188843265050002     
 H     -0.06461670     -0.00264912     -0.48304188     -0.03826442      0.00448678     -0.18400677
 H      0.04128324     -0.12336736      0.52169719      0.02861804     -0.05658373      0.19998739
    2
 MD step:        1050 time   2.5398285428302501     
 H     -0.06937049     -0.00187968     -0.50632752     -0.04013421      0.00842654     -0.19919499
 H      0.04487035     -0.13043762      0.54691560      0.03048784     -0.06052350      0.21517559
    2
 MD step:        1100 time   2.6607727591554999     
 H     -0.07431099     -0.00074522     -0.53130608     -0.04157556      0.00992402     -0.21387121
 H      0.04864419     -0.13787291      0.57382692      0.03192919     -0.06202098      0.22985182
    2
 MD step:        1150 time   2.7817169754807503     
 H     -0.07940835      0.00054639     -0.55781808     -0.04257615      0.01099623     -0.22397269
 H      0.05257487     -0.14546534      0.60227168      0.03292978     -0.06309318      0.23995329
    2
 MD step:        1200 time   2.9026611918060001     
 H     -0.08459040      0.00177431     -0.58533302     -0.04317134      0.00973211     -0.23035514
 H      0.05659025     -0.15299409      0.63171938      0.03352497     -0.06182906      0.24633574
    2
 MD step:        1250 time   3.0236054081312500     
 H     -0.08988761      0.00308005     -0.61373146     -0.04453702      0.01197113     -0.24063240
 H      0.06072078     -0.16060065      0.66205058      0.03489064     -0.06406809      0.25661297
    2
 MD step:        1300 time   3.1445496244565003     
 H     -0.09535937      0.00463190     -0.64353644     -0.04581255      0.01375671     -0.25076354
 H      0.06502587     -0.16845332      0.69378831      0.03616618     -0.06585369      0.26674409
    2
 MD step:        1350 time   3.2654938407817502     
 H     -0.10092467      0.00638478     -0.67408123     -0.04608094      0.01447939     -0.25418649
 H      0.06942450     -0.17650704      0.72626586      0.03643457     -0.06657637      0.27016704
    2
 MD step:        1400 time   3.3864380571070001     
 H     -0.10649684      0.00800166     -0.70495207     -0.04613102      0.01270174     -0.25574777
 H      0.07383000     -0.18442475      0.75906945      0.03648464     -0.06479873      0.27172832
    2
 MD step:        1450 time   3.5073822734322500     
 H     -0.11211440      0.00963740     -0.73606444     -0.04685266      0.01456793     -0.25986902
 H      0.07828089     -0.19236131      0.79211458      0.03720629     -0.06666490      0.27584959
    2
 MD step:        1500 time   3.6283264897575003     
 H     -0.11783298      0.01145837     -0.76796389     -0.04769473      0.01523837     -0.26758170
 H      0.08283279     -0.20048311      0.82594679      0.03804836     -0.06733535      0.28356228
    2
 MD step:        1550 time   3.7492707060827501     
 H     -0.12364894      0.01333330     -0.80071152     -0.04849491      0.01589060     -0.27398274
 H      0.08748208     -0.20865887      0.86062717      0.03884854     -0.06798758      0.28996332
    2
 MD step:        1600 time   3.8702149224080000     
 H     -0.12956386      0.01530136     -0.83424476     -0.04930335      0.01665867     -0.28037574
 H      0.09223032     -0.21692775      0.89609318      0.03965697     -0.06875564      0.29635631
    2
 MD step:        1650 time   3.9911591387332503     
 H     -0.13556858      0.01736776     -0.86846818     -0.04994075      0.01754613     -0.28512335
 H      0.09706837     -0.22529498      0.93224936      0.04029437     -0.06964310      0.30110393
    2
 MD step:        1700 time   4.1121033550585002     
 H     -0.14163506      0.01951245     -0.90320457     -0.05036786      0.01758547     -0.28947106
 H      0.10196818     -0.23374050      0.96891850      0.04072149     -0.06968243      0.30545165
    2
 MD step:        1750 time   4.2330475713837501     
 H     -0.14774381      0.02160828     -0.93833955     -0.05055493      0.01743907     -0.29010162
 H      0.10691025     -0.24213716      1.00598625      0.04090856     -0.06953604      0.30608221
    2
 MD step:        1800 time   4.3539917877090000     
 H     -0.15383777      0.02379731     -0.97317147     -0.05019097      0.01847427     -0.28655994
 H      0.11183754     -0.25062702      1.04275093      0.04054460     -0.07057124      0.30254054
    2
 MD step:        1850 time   4.4749360040342498     
 H     -0.15988826      0.02594565     -1.00781316     -0.04989249      0.01690572     -0.28612203
 H      0.11672136     -0.25907618      1.07932538      0.04024612     -0.06900269      0.30210264
    2
 MD step:        1900 time   4.5958802203594997     
 H     -0.16592315      0.02798804     -1.04235530     -0.04999039      0.01734278     -0.28557446
 H      0.12158958     -0.26741940      1.11580028      0.04034401     -0.06943974      0.30155506
    2
 MD step:        1950 time   4.7168244366847505     
 H     -0.17198582      0.03014266     -1.07702010     -0.05025463      0.01791592     -0.28809038
 H      0.12648557     -0.27587484      1.15239784      0.04060826     -0.07001289      0.30407098
    2
 MD step:        2000 time   4.8377686530100004     
 H     -0.17807744      0.03226124     -1.11202558     -0.05046559      0.01726818     -0.29012414
 H      0.13141052     -0.28429425      1.18933609      0.04081922     -0.06936514      0.30610474
    2
 MD step:        2050 time   4.9587128693352502     
 H     -0.18417876      0.03440032     -1.14699717     -0.05035170      0.01822832     -0.28785432
 H      0.13634516     -0.29273416      1.22624043      0.04070533     -0.07032527      0.30383493
    2
 MD step:        2100 time   5.0796570856605001     
 H     -0.19025073      0.03658522     -1.18176361     -0.05005939      0.01740936     -0.28734948
 H      0.14125046     -0.30121988      1.26293964      0.04041302     -0.06950632      0.30333008
    2
 MD step:        2150 time   5.2006013019857500     
 H     -0.19629033      0.03861849     -1.21640709     -0.04985867      0.01675575     -0.28519191
 H      0.14612339     -0.30955398      1.29951587      0.04021229     -0.06885271      0.30117252
    2
 MD step:        2200 time   5.3215455183109999     
 H     -0.20232381      0.04072085     -1.25085244     -0.04992674      0.01781833     -0.28514412
 H      0.15099020     -0.31795717      1.33589399      0.04028037     -0.06991529      0.30112472
    2
 MD step:        2250 time   5.4424897346362506     
 H     -0.20836643      0.04282786     -1.28547241     -0.04999335      0.01685186     -0.28704060
 H      0.15586615     -0.32636500      1.37244672      0.04034698     -0.06894883      0.30302120
    2
 MD step:        2300 time   5.5634339509615005     
 H     -0.21441131      0.04486720     -1.32009917     -0.04992116      0.01728921     -0.28496015
 H      0.16074436     -0.33470517      1.40900624      0.04027479     -0.06938617      0.30094076
    2
 MD step:        2350 time   5.6843781672867504     
 H     -0.22043755      0.04700164     -1.35448282     -0.04973825      0.01752218     -0.28433818
 H      0.16560392     -0.34314044      1.44532266      0.04009188     -0.06961914      0.30031878
    2
 MD step:        2400 time   5.8053223836120003     
 H     -0.22644379      0.04903488     -1.38887931     -0.04959938      0.01633516     -0.28390260
 H      0.17044348     -0.35147450      1.48165191      0.03995301     -0.06843212      0.29988320
    2
 MD step:        2450 time   5.9262665999372501     
 H     -0.23244169      0.05106211     -1.42310727     -0.04959319      0.01735627     -0.28245791
 H      0.17527472     -0.35980255      1.51781263      0.03994682     -0.06945323      0.29843851
    2
 MD step:        2500 time   6.0472108162625000     
 H     -0.23843810      0.05315683     -1.45733379     -0.04956484      0.01683528     -0.28375948
 H      0.18010445     -0.36819810      1.55397190      0.03991847     -0.06893224      0.29974008
    2
 MD step:        2550 time   6.1681550325877499     
 H     -0.24442903      0.05513707     -1.49162237     -0.04948635      0.01637252     -0.28246885
 H      0.18492871     -0.37647917      1.59019325      0.03983998     -0.06846948      0.29844945
    2
 MD step:        2600 time   6.2890992489130007     
 H     -0.25040788      0.05718916     -1.52566484     -0.04939626      0.01734958     -0.28125764
 H      0.18974088     -0.38483209      1.62616848      0.03974989     -0.06944653      0.29723825
    2
 MD step:        2650 time   6.4100434652382505     
 H     -0.25637846      0.05922848     -1.55976269     -0.04933842      0.01621514     -0.28230550
 H      0.19454479     -0.39317223      1.66219909      0.03969205     -0.06831210      0.29828610
    2
 MD step:        2700 time   6.5309876815635004     
 H     -0.26234366      0.06119049     -1.59381487     -0.04930240      0.01666775     -0.28054980
 H      0.19934332     -0.40143507      1.69818403      0.03965603     -0.06876471      0.29653040
    2
 MD step:        2750 time   6.6519318978887503     
 H     -0.26830188      0.06325233     -1.62771740     -0.04922374      0.01695815     -0.28069727
 H      0.20413486     -0.40979773      1.73401932      0.03957737     -0.06905511      0.29667787
    2
 MD step:        2800 time   6.7728761142140002     
 H     -0.27425043      0.06522280     -1.66170448     -0.04914436      0.01584502     -0.28065999
 H      0.20891674     -0.41806903      1.76993917      0.03949798     -0.06794198      0.29664059
    2
 MD step:        2850 time   6.8938203305392500     
 H     -0.28019058      0.06719150     -1.69551619     -0.04909287      0.01687850     -0.27883641
 H      0.21369022     -0.42633855      1.80568364      0.03944650     -0.06897546      0.29481702
    2
 MD step:        2900 time   7.0147645468644999     
 H     -0.28612574      0.06922692     -1.72930232     -0.04905395      0.01633251     -0.28009518
 H      0.21845871     -0.43467480      1.84140253      0.03940758     -0.06842947      0.29607578
    2
 MD step:        2950 time   7.1357087631897507     
 H     -0.29205589      0.07114881     -1.76315422     -0.04900626      0.01591878     -0.27903477
 H      0.22322219     -0.44289752      1.87718719      0.03935988     -0.06801574      0.29501537
    2
 MD step:        3000 time   7.2566529795150005     
 H     -0.29797925      0.07314636     -1.79680391     -0.04894788      0.01689207     -0.27810357
 H      0.22797887     -0.45119589      1.91276964      0.03930150     -0.06898903      0.29408417
    2
 MD step:        3050 time   7.3775971958402504     
 H     -0.30389605      0.07512996     -1.83052347     -0.04889605      0.01575339     -0.27918870
 H      0.23272899     -0.45948032      1.94842196      0.03924968     -0.06785035      0.29516930
    2
 MD step:        3100 time   7.4985414121655003     
 H     -0.30980708      0.07703673     -1.86419162     -0.04885231      0.01622281     -0.27734723
 H      0.23747336     -0.46768792      1.98402287      0.03920593     -0.06831977      0.29332783
    2
 MD step:        3150 time   7.6194856284907502     
 H     -0.31571249      0.07904602     -1.89772025     -0.04880266      0.01653039     -0.27772889
 H      0.24221209     -0.47599802      2.01948426      0.03915629     -0.06862735      0.29370949
    2
 MD step:        3200 time   7.7404298448160000     
 H     -0.32161197      0.08096689     -1.93136042     -0.04875439      0.01546016     -0.27789322
 H      0.24694489     -0.48421973      2.05505719      0.03910802     -0.06755712      0.29387382
    2
 MD step:        3250 time   7.8613740611412499     
 H     -0.32750588      0.08289069     -1.96484469     -0.04871187      0.01650799     -0.27615127
 H      0.25167213     -0.49244435      2.09047423      0.03906550     -0.06860495      0.29213188
    2
 MD step:        3300 time   7.9823182774665007     
 H     -0.33339486      0.08488005     -1.99830673     -0.04867169      0.01594506     -0.27741314
 H      0.25639444     -0.50073453      2.12586903      0.03902532     -0.06804202      0.29339374
    2
 MD step:        3350 time   8.1032624937917497     
 H     -0.33927899      0.08675620     -2.03183432     -0.04863107      0.01555523     -0.27638623
 H      0.26111190     -0.50891152      2.16132938      0.03898470     -0.06765219      0.29236683
    2
 MD step:        3400 time   8.2242067101170004     
 H     -0.34515817      0.08871058     -2.06517396     -0.04859090      0.01653436     -0.27561396
 H      0.26582441     -0.51716672      2.19660178      0.03894452     -0.06863132      0.29159456
    2
 MD step:        3450 time   8.3451509264422494     
 H     -0.35103263      0.09065099     -2.09859831     -0.04855254      0.01540328     -0.27678501
 H      0.27053219     -0.52540795      2.23195890      0.03890617     -0.06750024      0.29276561
    2
 MD step:        3500 time   8.4660951427675002     
 H     -0.35690254      0.09251705     -2.13197753     -0.04851547      0.01589722     -0.27498066
 H      0.27523543     -0.53357484      2.26727087      0.03886910     -0.06799418      0.29096126
    2
 MD step:        3550 time   8.5870393590927510     
 H     -0.36276796      0.09448693     -2.16522700     -0.04847853      0.01620153     -0.27547709
 H      0.27993417     -0.54184555      2.30245310      0.03883216     -0.06829848      0.29145770
    2
 MD step:        3600 time   8.7079835754179999     
 H     -0.36862898      0.09636888     -2.19859898     -0.04844279      0.01515242     -0.27570783
 H      0.28462852     -0.55002832      2.33775785      0.03879642     -0.06724938      0.29168843
    2
 MD step:        3650 time   8.8289277917432507     
 H     -0.37448578      0.09825680     -2.23182329     -0.04840866      0.01621402     -0.27403906
 H      0.28931865     -0.55821707      2.37291492      0.03876229     -0.06831097      0.29001966
    2
 MD step:        3700 time   8.9498720080684997     
 H     -0.38033850      0.10020984     -2.26503396     -0.04837527      0.01564221     -0.27535806
 H      0.29400470     -0.56647094      2.40805835      0.03872890     -0.06773917      0.29133866
    2
 MD step:        3750 time   9.0708162243937505     
 H     -0.38618723      0.10205074     -2.29831461     -0.04834267      0.01527760     -0.27436727
 H      0.29868676     -0.57461265      2.44327176      0.03869630     -0.06737456      0.29034787
    2
 MD step:        3800 time   9.1917604407189994     
 H     -0.39203209      0.10397194     -2.33141537     -0.04831120      0.01625639     -0.27368242
 H      0.30336494     -0.58283469      2.47830528      0.03866483     -0.06835334      0.28966303
    2
 MD step:        3850 time   9.3127046570442502     
 H     -0.39787319      0.10587843     -2.36460939     -0.04828063      0.01512771     -0.27489769
 H      0.30803937     -0.59104201      2.51343206      0.03863426     -0.06722467      0.29087829
    2
 MD step:        3900 time   9.4336488733695010     
 H     -0.40371064      0.10771278     -2.39776226     -0.04825065      0.01564490     -0.27313611
 H      0.31271014     -0.59917718      2.54851770      0.03860428     -0.06774186      0.28911672
    2
 MD step:        3950 time   9.5545930896947500     
 H     -0.40954450      0.10965173     -2.43079370     -0.04822147      0.01593996     -0.27371061
 H      0.31737733     -0.60741696      2.58348189      0.03857510     -0.06803692      0.28969121
    2
 MD step:        4000 time   9.6755373060200007     
 H     -0.41537488      0.11150258     -2.46395397     -0.04819307      0.01490660     -0.27396965
 H      0.32204104     -0.61556863      2.61857493      0.03854670     -0.06700356      0.28995025
    2
 MD step:        4050 time   9.7964815223452497     
 H     -0.42120188      0.11336195     -2.49697101     -0.04816537      0.01598005     -0.27235864
 H      0.32670136     -0.62372883      2.65352473      0.03851900     -0.06807701      0.28833925
    2
 MD step:        4100 time   9.9174257386705005     
 H     -0.42702555      0.11528590     -2.52998223     -0.04813820      0.01539882     -0.27372923
 H      0.33135837     -0.63195360      2.68846871      0.03849183     -0.06749578      0.28970983
    2
 MD step:        4150 time   10.038369954995749     
 H     -0.43284598      0.11709864     -2.56306686     -0.04811179      0.01505767     -0.27276070
 H      0.33601212     -0.64006717      2.72348611      0.03846542     -0.06715463      0.28874130
    2
 MD step:        4200 time   10.159314171321000     
 H     -0.43866327      0.11899348     -2.59597720     -0.04808616      0.01603339     -0.27214195
 H      0.34066274     -0.64826284      2.75832921      0.03843979     -0.06813035      0.28812255
    2
 MD step:        4250 time   10.280258387646251     
 H     -0.44447749      0.12087260     -2.62898712     -0.04806110      0.01490542     -0.27338391
 H      0.34531029     -0.65644278      2.79327188      0.03841472     -0.06700238      0.28936451
    2
 MD step:        4300 time   10.401202603971500     
 H     -0.45028871      0.12268156     -2.66195818     -0.04803659      0.01544364     -0.27165454
 H      0.34995483     -0.66455257      2.82817570      0.03839022     -0.06754060      0.28763514
    2
 MD step:        4350 time   10.522146820296751     
 H     -0.45609702      0.12459557     -2.69481442     -0.04801279      0.01572674     -0.27228935
 H      0.35459646     -0.67276741      2.86296471      0.03836642     -0.06782370      0.28826995
    2
 MD step:        4400 time   10.643091036622000     
 H     -0.46190247      0.12642107     -2.72780373     -0.04798951      0.01470719     -0.27256018
 H      0.35923525     -0.68089372      2.89788678      0.03834313     -0.06680415      0.28854078
    2
 MD step:        4450 time   10.764035252947250     
 H     -0.46770514      0.12825736     -2.76065254     -0.04796672      0.01579051     -0.27099624
 H      0.36387125     -0.68903085      2.93266835      0.03832035     -0.06788747      0.28697684
    2
 MD step:        4500 time   10.884979469272501     
 H     -0.47350509      0.13015751     -2.79350216     -0.04794446      0.01519851     -0.27240843
 H      0.36850452     -0.69723182      2.96745073      0.03829809     -0.06729547      0.28838903
    2
 MD step:        4550 time   11.005923685597750     
 H     -0.47930237      0.13194723     -2.82642741     -0.04792270      0.01487927     -0.27145059
 H      0.37313513     -0.70532237      3.00230875      0.03827633     -0.06697623      0.28743119
    2
 MD step:        4600 time   11.126867901923001     
 H     -0.48509706      0.13382064     -2.85918244     -0.04790143      0.01585057     -0.27088700
 H      0.37776314     -0.71349660      3.03699654      0.03825506     -0.06794753      0.28686761
    2
 MD step:        4650 time   11.247812118248250     
 H     -0.49088920      0.13567716     -2.89204223     -0.04788063      0.01472210     -0.27214647
 H      0.38238861     -0.72165394      3.07178909      0.03823426     -0.06681906      0.28812707
    2
 MD step:        4700 time   11.368756334573501     
 H     -0.49667885      0.13746538     -2.92486438     -0.04786028      0.01528001     -0.27043972
 H      0.38701158     -0.72974299      3.10654400      0.03821391     -0.06737697      0.28642032
    2
 MD step:        4750 time   11.489700550898750     
 H     -0.50246606      0.13935891     -2.95757702     -0.04784037      0.01554967     -0.27112386
 H      0.39163213     -0.73793735      3.14118940      0.03819400     -0.06764663      0.28710446
    2
 MD step:        4800 time   11.610644767224001     
 H     -0.50825090      0.14116335     -2.99042569     -0.04782089      0.01454288     -0.27139690
 H      0.39625029     -0.74604262      3.17597083      0.03817451     -0.06663985      0.28737750
    2
 MD step:        4850 time   11.731588983549251     
 H     -0.51403340      0.14298074     -3.02313558     -0.04780181      0.01563449     -0.26987174
 H      0.40086612     -0.75416083      3.21061348      0.03815544     -0.06773145      0.28585235
    2
 MD step:        4900 time   11.852533199874500     
 H     -0.51981362      0.14486106     -3.05585177     -0.04778314      0.01503056     -0.27131553
 H      0.40547966     -0.76234197      3.24526243      0.03813676     -0.06712752      0.28729613
    2
 MD step:        4950 time   11.973477416199751     
 H     -0.52559160      0.14663161     -3.08864465     -0.04776485      0.01473213     -0.27036011
 H      0.41009097     -0.77041335      3.27998808      0.03811848     -0.06682909      0.28634071
    2
 MD step:        5000 time   12.094421632525000     
 H     -0.53136740      0.14848727     -3.12127054     -0.04774693      0.01569766     -0.26984458
 H      0.41470010     -0.77856984      3.31454673      0.03810056     -0.06779462      0.28582519
    2
 MD step:        5050 time   12.215365848850251     
 H     -0.53714105      0.15032477     -3.15400543     -0.04772938      0.01456795     -0.27111386
 H      0.41930707     -0.78670816      3.34921438      0.03808301     -0.06666492      0.28709447
    2
 MD step:        5100 time   12.336310065175500     
 H     -0.54291260      0.15209571     -3.18670301     -0.04771218      0.01514441     -0.26942286
 H      0.42391195     -0.79477993      3.38384471      0.03806581     -0.06724137      0.28540346
    2
 MD step:        5150 time   12.457254281500751     
 H     -0.54868208      0.15397209     -3.21929562     -0.04769532      0.01539970     -0.27015007
 H      0.42851476     -0.80295714      3.41837009      0.03804895     -0.06749666      0.28613068
    2
 MD step:        5200 time   12.578198497826001     
 H     -0.55444955      0.15575873     -3.25202644     -0.04767879      0.01440507     -0.27041913
 H      0.43311556     -0.81104460      3.45303367      0.03803242     -0.06650203      0.28639973
    2
 MD step:        5250 time   12.699142714151250     
 H     -0.56021504      0.15756034     -3.28461951     -0.04766258      0.01550384     -0.26892703
 H      0.43771438     -0.81914703      3.48755951      0.03801621     -0.06760080      0.28490764
    2
 MD step:        5300 time   12.820086930476501     
 H     -0.56597859      0.15942385     -3.31722363     -0.04764668      0.01488732     -0.27039624
 H      0.44231126     -0.82731137      3.52209638      0.03800031     -0.06698428      0.28637684
    2
 MD step:        5350 time   12.941031146801750     
 H     -0.57174024      0.16117818     -3.34990482     -0.04763109      0.01460898     -0.26943790
 H      0.44690623     -0.83536653      3.55671033      0.03798472     -0.06670594      0.28541850
    2
 MD step:        5400 time   13.061975363127001     
 H     -0.57750001      0.16301895     -3.38242161     -0.04761579      0.01556775     -0.26896521
 H      0.45149933     -0.84350812      3.59115989      0.03796942     -0.06766471      0.28494582
    2
 MD step:        5450 time   13.182919579452250     
 H     -0.58325796      0.16484017     -3.41505099     -0.04760077      0.01443638     -0.27023889
 H      0.45609060     -0.85163017      3.62572202      0.03795440     -0.06653334      0.28621949
    2
 MD step:        5500 time   13.303863795777501     
 H     -0.58901410      0.16659652     -3.44764277     -0.04758604      0.01503055     -0.26855913
 H      0.46068007     -0.85968735      3.66024657      0.03793966     -0.06712751      0.28453974
    2
 MD step:        5550 time   13.424808012102751     
 H     -0.59476848      0.16845833     -3.48013359     -0.04757157      0.01527075     -0.26932453
 H      0.46526778     -0.86784998      3.69467015      0.03792520     -0.06736771      0.28530513
    2
 MD step:        5600 time   13.545752228428000     
 H     -0.60052113      0.17022967     -3.51276420     -0.04755737      0.01428788     -0.26958502
 H      0.46985375     -0.87592215      3.72923352      0.03791099     -0.06638484      0.28556562
    2
 MD step:        5650 time   13.666696444753251     
 H     -0.60627207      0.17201795     -3.54525759     -0.04754342      0.01539293     -0.26812201
 H      0.47443802     -0.88401126      3.76365967      0.03789704     -0.06748989      0.28410261
    2
 MD step:        5700 time   13.787640661078500     
 H     -0.61202134      0.17386701     -3.57776626     -0.04752972      0.01476339     -0.26961211
 H      0.47902062     -0.89216115      3.79810111      0.03788334     -0.06686035      0.28559271
    2
 MD step:        5750 time   13.908584877403751     
 H     -0.61776897      0.17560743     -3.61035186     -0.04751626      0.01450464     -0.26864709
 H      0.48360157     -0.90020239      3.83261947      0.03786988     -0.06660160      0.28462769
    2
 MD step:        5800 time   14.029529093729000     
 H     -0.62351498      0.17743553     -3.64277523     -0.04750303      0.01545589     -0.26821351