    2
 MD step:           0 time   0.0000000000000000     
 H      0.00000000      0.00000000     -0.37000000      0.01927173      0.01789728      0.02318044
 H      0.00000000      0.00000000      0.37000000      0.04629466      0.02508913     -0.02463529
    2
 MD step:          50 time  0.12094421632525000     
 H      0.00233072      0.00216457     -0.36720866      0.01926907      0.01789710      0.02293258
 H      0.00559915      0.00303439      0.36703271      0.04629731      0.02508931     -0.02438742
    2
 MD step:         100 time  0.24188843265050000     
 H      0.00466095      0.00432907     -0.36446370      0.01926289      0.01789615      0.02241129
 H      0.01119880      0.00606884      0.36411179      0.04630350      0.02509026     -0.02386614
    2
 MD step:         150 time  0.36283264897575002     
 H      0.00698985      0.00649338     -0.36179904      0.01924883      0.01789372      0.02160529
 H      0.01679977      0.00910349      0.36127117      0.04631755      0.02509269     -0.02306013
    2
 MD step:         200 time  0.48377686530100000     
 H      0.00931625      0.00865727     -0.35924908      0.01922334      0.01788913      0.02051847
 H      0.02240325      0.01213856      0.35854526      0.04634304      0.02509728     -0.02197332
    2
 MD step:         250 time  0.60472108162625005     
 H      0.01163888      0.01082044     -0.35684648      0.01918596      0.01788178      0.01917271
 H      0.02801049      0.01517435      0.35596671      0.04638043      0.02510462     -0.02062755
    2
 MD step:         300 time  0.72566529795150003     
 H      0.01395655      0.01298254     -0.35462059      0.01913876      0.01787120      0.01759935
 H      0.03362270      0.01821121      0.35356486      0.04642762      0.02511521     -0.01905420
    2
 MD step:         350 time  0.84660951427675002     
 H      0.01626806      0.01514313     -0.35259734      0.01908271      0.01785694      0.01582376
 H      0.03924106      0.02124957      0.35136566      0.04648367      0.02512947     -0.01727860
    2
 MD step:         400 time  0.96755373060200001     
 H      0.01857205      0.01730176     -0.35080068      0.01901435      0.01783854      0.01385365
 H      0.04486695      0.02428990      0.34939304      0.04655203      0.02514787     -0.01530849
    2
 MD step:         450 time   1.0884979469272500     
 H      0.02086659      0.01945788     -0.34925437      0.01892681      0.01781546      0.01168547
 H      0.05050229      0.02733274      0.34767077      0.04663957      0.02517095     -0.01314031
    2
 MD step:         500 time   1.2094421632525001     
 H      0.02314911      0.02161090     -0.34798203      0.01881508      0.01778729      0.00932667
 H      0.05614964      0.03037867      0.34622248      0.04675130      0.02519912     -0.01078151
    2
 MD step:         550 time   1.3303863795777500     
 H      0.02541683      0.02376021     -0.34700461      0.01868054      0.01775400      0.00681526
 H      0.06181179      0.03342832      0.34506911      0.04688585      0.02523241     -0.00827010
    2
 MD step:         600 time   1.4513305959030001     
 H      0.02766733      0.02590520     -0.34633691      0.01852995      0.01771602      0.00421463
 H      0.06749117      0.03648229      0.34422546      0.04703643      0.02527039     -0.00566947
    2
 MD step:         650 time   1.5722748122282502     
 H      0.02989892      0.02804535     -0.34598597      0.01836926      0.01767402      0.00158572
 H      0.07318946      0.03954110      0.34369856      0.04719712      0.02531239     -0.00304056
    2
 MD step:         700 time   1.6932190285535000     
 H      0.03211038      0.03018020     -0.34595298      0.01819857      0.01762849     -0.00103847
 H      0.07890787      0.04260521      0.34348961      0.04736781      0.02535792     -0.00041637
    2
 MD step:         750 time   1.8141632448787501     
 H      0.03430037      0.03230935     -0.34623659      0.01801385      0.01757972     -0.00364813
 H      0.08464776      0.04567502      0.34359727      0.04755253      0.02540669      0.00219329
    2
 MD step:         800 time   1.9351074612040000     
 H      0.03646717      0.03443242     -0.34683420      0.01781372      0.01752812     -0.00622751
 H      0.09041082      0.04875091      0.34401892      0.04775267      0.02545829      0.00477267
    2
 MD step:         850 time   2.0560516775292501     
 H      0.03860919      0.03654912     -0.34773987      0.01760380      0.01747468     -0.00873388
 H      0.09619868      0.05183316      0.34474864      0.04796258      0.02551173      0.00727903
    2
 MD step:         900 time   2.1769958938545000     
 H      0.04072571      0.03865932     -0.34894107      0.01739441      0.01742097     -0.01110357
 H      0.10201204      0.05492191      0.34577389      0.04817198      0.02556544      0.00964873
    2
 MD step:         950 time   2.2979401101797499     
 H      0.04281724      0.04076310     -0.35041795      0.01719384      0.01736859     -0.01328369
 H      0.10785039      0.05801709      0.34707481      0.04837254      0.02561782      0.01182885
    2
 MD step:        1000 time   2.4188843265050002     
 H      0.04488515      0.04286068     -0.35214564      0.01700513      0.01731871     -0.01524923
 H      0.11371234      0.06111847      0.34862654      0.04856125      0.02566770      0.01379439
    2
 MD step:        1050 time   2.5398285428302501     
 H      0.04693102      0.04495242     -0.35409795      0.01682765      0.01727199     -0.01700091
 H      0.11959635      0.06422569      0.35040290      0.04873873      0.02571442      0.01554607
    2
 MD step:        1100 time   2.6607727591554999     
 H      0.04895619      0.04703873     -0.35624938      0.01666143      0.01722891     -0.01854378
 H      0.12550105      0.06733834      0.35237837      0.04890496      0.02575750      0.01708893
    2
 MD step:        1150 time   2.7817169754807503     
 H      0.05096204      0.04912008     -0.35857445      0.01650948      0.01719030     -0.01986929
 H      0.13142508      0.07045594      0.35452749      0.04905690      0.02579610      0.01841445
    2
 MD step:        1200 time   2.9026611918060001     
 H      0.05295043      0.05119709     -0.36104590      0.01637693      0.01715732     -0.02095801
 H      0.13736657      0.07357789      0.35682299      0.04918945      0.02582909      0.01950316
    2
 MD step:        1250 time   3.0236054081312500     
 H      0.05492416      0.05327053     -0.36363343      0.01627027      0.01713140     -0.02178287
 H      0.14332271      0.07670341      0.35923456      0.04929611      0.02585501      0.02032802
    2
 MD step:        1300 time   3.1445496244565003     
 H      0.05688694      0.05534131     -0.36630384      0.01619539      0.01711367     -0.02232847
 H      0.14928981      0.07983158      0.36172902      0.04937100      0.02587274      0.02087362
    2
 MD step:        1350 time   3.2654938407817502     
 H      0.05884301      0.05741049     -0.36902301      0.01615684      0.01710485     -0.02259203
 H      0.15526361      0.08296136      0.36427223      0.04940955      0.02588156      0.02113719
    2
 MD step:        1400 time   3.3864380571070001     
 H      0.06079673      0.05947915     -0.37175766      0.01615548      0.01710508     -0.02258847
 H      0.16123976      0.08609166      0.36683092      0.04941091      0.02588132      0.02113363
    2
 MD step:        1450 time   3.5073822734322500     
 H      0.06275227      0.06154837     -0.37447707      0.01618831      0.01711416     -0.02234264
 H      0.16721410      0.08922140      0.36937438      0.04937808      0.02587225      0.02088779
    2
 MD step:        1500 time   3.6283264897575003     
 H      0.06471351      0.06361921     -0.37715359      0.01625077      0.01713175     -0.02188160
 H      0.17318273      0.09234952      0.37187495      0.04931561      0.02585466      0.02042675
    2
 MD step:        1550 time   3.7492707060827501     
 H      0.06668407      0.06569266     -0.37976251      0.01634012      0.01715746     -0.02122922
 H      0.17914205      0.09547502      0.37430792      0.04922626      0.02582895      0.01977438
    2
 MD step:        1600 time   3.8702149224080000     
 H      0.06866729      0.06776970     -0.38228184      0.01645666      0.01719093     -0.02040406
 H      0.18508871      0.09859694      0.37665128      0.04910972      0.02579548      0.01894922
    2
 MD step:        1650 time   3.9911591387332503     
 H      0.07066637      0.06985125     -0.38469127      0.01660213      0.01723203     -0.01941601
 H      0.19101950      0.10171435      0.37888477      0.04896426      0.02575438      0.01796117
    2
 MD step:        1700 time   4.1121033550585002     
 H      0.07268449      0.07193823     -0.38697203      0.01677538      0.01728058     -0.01827809
 H      0.19693126      0.10482633      0.38098956      0.04879101      0.02570583      0.01682325
    2
 MD step:        1750 time   4.2330475713837501     
 H      0.07472488      0.07403156     -0.38910633      0.01697468      0.01733682     -0.01699460
 H      0.20282074      0.10793195      0.38294792      0.04859171      0.02564959      0.01553976
    2
 MD step:        1800 time   4.3539917877090000     
 H      0.07679094      0.07613215     -0.39107723      0.01719852      0.01740062     -0.01557678
 H      0.20868456      0.11103032      0.38474286      0.04836787      0.02558579      0.01412193
    2
 MD step:        1850 time   4.4749360040342498     
 H      0.07888598      0.07824087     -0.39286914      0.01744908      0.01747174     -0.01403265
 H      0.21451939      0.11412056      0.38635881      0.04811730      0.02551467      0.01257780
    2
 MD step:        1900 time   4.5958802203594997     
 H      0.08101329      0.08035860     -0.39446720      0.01772880      0.01754977     -0.01237275
 H      0.22032196      0.11720179      0.38778092      0.04783759      0.02543663      0.01091791
    2
 MD step:        1950 time   4.7168244366847505     
 H      0.08317589      0.08248617     -0.39585827      0.01803577      0.01763415     -0.01061331
 H      0.22608923      0.12027318      0.38899604      0.04753062      0.02535226      0.00915847
    2
 MD step:        2000 time   4.8377686530100004     
 H      0.08537675      0.08462436     -0.39703063      0.01836614      0.01772490     -0.00876150
 H      0.23181824      0.12333394      0.38999244      0.04720025      0.02526151      0.00730666
    2
 MD step:        2050 time   4.9587128693352502     
 H      0.08761868      0.08677390     -0.39797428      0.01871476      0.01782146     -0.00683545
 H      0.23750619      0.12638336      0.39076013      0.04685163      0.02516495      0.00538061
    2
 MD step:        2100 time   5.0796570856605001     
 H      0.08990414      0.08893540     -0.39868149      0.01908114      0.01792316     -0.00484963
 H      0.24315061      0.12942082      0.39129139      0.04648524      0.02506325      0.00339478
    2
 MD step:        2150 time   5.2006013019857500     
 H      0.09223527      0.09110943     -0.39914597      0.01946563      0.01802887     -0.00282318
 H      0.24874936      0.13244575      0.39157992      0.04610075      0.02495754      0.00136834
    2
 MD step:        2200 time   5.3215455183109999     
 H      0.09461369      0.09329644     -0.39936390      0.01986486      0.01813752     -0.00077732
 H      0.25430081      0.13545769      0.39162189      0.04570152      0.02484889     -0.00067752
    2
 MD step:        2250 time   5.4424897346362506     
 H      0.09704070      0.09549682     -0.39933328      0.02027375      0.01824891      0.00127962
 H      0.25980367      0.13845627      0.39141532      0.04529263      0.02473749     -0.00273446
    2
 MD step:        2300 time   5.5634339509615005     
 H      0.09951728      0.09771079     -0.39905427      0.02068519      0.01836220      0.00332763
 H      0.26525696      0.14144126      0.39096035      0.04488120      0.02462421     -0.00478247
    2
 MD step:        2350 time   5.6843781672867504     
 H      0.10204393      0.09993847     -0.39852941      0.02109715      0.01847638      0.00535045
 H      0.27066019      0.14441253      0.39025954      0.04446923      0.02451003     -0.00680529
    2
 MD step:        2400 time   5.8053223836120003     
 H      0.10462074      0.10217992     -0.39776250      0.02150943      0.01859003      0.00732924
 H      0.27601326      0.14737004      0.38931668      0.04405695      0.02439637     -0.00878408
    2
 MD step:        2450 time   5.9262665999372501     
 H      0.10724718      0.10443504     -0.39675968      0.02191854      0.01870185      0.00924436
 H      0.28131669      0.15031388      0.38813790      0.04364785      0.02428456     -0.01069920
    2
 MD step:        2500 time   6.0472108162625000     
 H      0.10992239      0.10670364     -0.39552852      0.02232046      0.01881190      0.01109500
 H      0.28657136      0.15324424      0.38673078      0.04324592      0.02417450     -0.01254985
    2
 MD step:        2550 time   6.1681550325877499     
 H      0.11264521      0.10898543     -0.39407816      0.02270762      0.01891940      0.01286531
 H      0.29177841      0.15616141      0.38510447      0.04285876      0.02406701     -0.01432015
    2
 MD step:        2600 time   6.2890992489130007     
 H      0.11541407      0.11127997     -0.39241950      0.02307878      0.01902372      0.01454860
 H      0.29693943      0.15906582      0.38326986      0.04248760      0.02396268     -0.01600344
    2
 MD step:        2650 time   6.4100434652382505     
 H      0.11822723      0.11358681     -0.39056356      0.02343467      0.01912363      0.01613277
 H      0.30205614      0.16195794      0.38123796      0.04213171      0.02386278     -0.01758761
    2
 MD step:        2700 time   6.5309876815635004     
 H      0.12108246      0.11590540     -0.38852279      0.02377459      0.01921804      0.01760729
 H      0.30713079      0.16483831      0.37902124      0.04179180      0.02376837     -0.01906213
    2
 MD step:        2750 time   6.6519318978887503     
 H      0.12397755      0.11823515     -0.38630940      0.02409805      0.01930735      0.01898030
 H      0.31216558      0.16770751      0.37663189      0.04146833      0.02367906     -0.02043514
    2
 MD step:        2800 time   6.7728761142140002     
 H      0.12691022      0.12057543     -0.38393610      0.02439952      0.01939115      0.02024454
 H      0.31716278      0.17056619      0.37408263      0.04116687      0.02359526     -0.02169939
    2
 MD step:        2850 time   6.8938203305392500     
 H      0.12987821      0.12292555     -0.38141572      0.02468051      0.01946989      0.02141002
 H      0.32212466      0.17341503      0.37138630      0.04088587      0.02351652     -0.02286486
    2
 MD step:        2900 time   7.0147645468644999     
 H      0.13287930      0.12528481     -0.37876071      0.02494116      0.01954257      0.02246869
 H      0.32705345      0.17625473      0.36855533      0.04062522      0.02344383     -0.02392354
    2
 MD step:        2950 time   7.1357087631897507     
 H      0.13591088      0.12765242     -0.37598453      0.02518237      0.01960844      0.02341674
 H      0.33195174      0.17908608      0.36560320      0.04038402      0.02337797     -0.02487158
    2
 MD step:        3000 time   7.2566529795150005     
 H      0.13897014      0.13002753     -0.37310114      0.02539941      0.01966629      0.02424059
 H      0.33682236      0.18190993      0.36254385      0.04016697      0.02332011     -0.02569543
    2
 MD step:        3050 time   7.3775971958402504     
 H      0.14205345      0.13240905     -0.37012708      0.02558197      0.01971425      0.02491474
 H      0.34166892      0.18472736      0.35939384      0.03998441      0.02327216     -0.02636958
    2
 MD step:        3100 time   7.4985414121655003     
 H      0.14515618      0.13479567     -0.36708197      0.02571815      0.01974990      0.02540812
 H      0.34649607      0.18753969      0.35617277      0.03984823      0.02323651     -0.02686296
    2
 MD step:        3150 time   7.6194856284907502     
 H      0.14827201      0.13718570     -0.36398996      0.02579455      0.01977002      0.02568156
 H      0.35131011      0.19034862      0.35290481      0.03977183      0.02321639     -0.02713640
    2
 MD step:        3200 time   7.7404298448160000     
 H      0.15139279      0.13957706     -0.36088006      0.02579722      0.01977123      0.02569622
 H      0.35611920      0.19315622      0.34961896      0.03976917      0.02321518     -0.02715106
    2
 MD step:        3250 time   7.8613740611412499     
 H      0.15450869      0.14196731     -0.35778540      0.02571529      0.01975135      0.02542932
 H      0.36093318      0.19596493      0.34634835      0.03985109      0.02323506     -0.02688416
    2
 MD step:        3300 time   7.9823182774665007     
 H      0.15760900      0.14435382     -0.35474072      0.02554192      0.01970912      0.02487181
 H      0.36576274      0.19877738      0.34312770      0.04002446      0.02327728     -0.02632665
    2
 MD step:        3350 time   8.1032624937917497     
 H      0.16068312      0.14673392     -0.35177978      0.02528400      0.01964592      0.02405237
 H      0.37061850      0.20159624      0.33999082      0.04028239      0.02334049     -0.02550721
    2
 MD step:        3400 time   8.2242067101170004     
 H      0.16372186      0.14910522     -0.34893148      0.02495540      0.01956388      0.02301236
 H      0.37550964      0.20442390      0.33696656      0.04061098      0.02342253     -0.02446721
    2
 MD step:        3450 time   8.3451509264422494     
 H      0.16671758      0.15146558     -0.34621985      0.02457218      0.01946569      0.02179815
 H      0.38044379      0.20726249      0.33407897      0.04099420      0.02352072     -0.02325300
    2
 MD step:        3500 time   8.4660951427675002     
 H      0.16966388      0.15381313     -0.34366470      0.02413705      0.01935184      0.02042300
 H      0.38542737      0.21011390      0.33134787      0.04142933      0.02363457     -0.02187785
    2
 MD step:        3550 time   8.5870393590927510     
 H      0.17255370      0.15614588     -0.34128671      0.02363769      0.01922056      0.01886630
 H      0.39046742      0.21298010      0.32879392      0.04192869      0.02376585     -0.02032114
    2
 MD step:        3600 time   8.7079835754179999     
 H      0.17537815      0.15846151     -0.33911019      0.02305347      0.01906847      0.01708748
 H      0.39557285      0.21586343      0.32644145      0.04251292      0.02391794     -0.01854233
    2
 MD step:        3650 time   8.8289277917432507     
 H      0.17812647      0.16075742     -0.33716274      0.02237693      0.01889457      0.01507896
 H      0.40075440      0.21876648      0.32431804      0.04318946      0.02409184     -0.01653380
    2
 MD step:        3700 time   8.9498720080684997     
 H      0.18078800      0.16303107     -0.33547045      0.02162152      0.01870141      0.01288077
 H      0.40602274      0.22169179      0.32244980      0.04394487      0.02428500     -0.01433561
    2
 MD step:        3750 time   9.0708162243937505     
 H      0.18335517      0.16528056     -0.33405067      0.02082245      0.01849613      0.01058669
 H      0.41138545      0.22464126      0.32085406      0.04474393      0.02449028     -0.01204153
    2
 MD step:        3800 time   9.1917604407189994     
 H      0.18582435      0.16750479     -0.33291047      0.02000728      0.01828462      0.00826974
 H      0.41684614      0.22761598      0.31953791      0.04555911      0.02470179     -0.00972458
    2
 MD step:        3850 time   9.3127046570442502     
 H      0.18819449      0.16970325     -0.33205003      0.01918345      0.01806949      0.00595670
 H      0.42240588      0.23061648      0.31850151      0.04638294      0.02491692     -0.00741154
    2
 MD step:        3900 time   9.4336488733695010     
 H      0.19046389      0.17187539     -0.33147016      0.01833737      0.01784914      0.00362358
 H      0.42806636      0.23364330      0.31774569      0.04722902      0.02513727     -0.00507843
    2
 MD step:        3950 time   9.5545930896947500     
 H      0.19262906      0.17402048     -0.33117482      0.01745805      0.01762214      0.00125065
 H      0.43383106      0.23669717      0.31727440      0.04810833      0.02536427     -0.00270549
    2
 MD step:        4000 time   9.6755373060200007     
 H      0.19468659      0.17613789     -0.33116692      0.01656344      0.01739280     -0.00111556
 H      0.43970340      0.23977871      0.31709054      0.04900295      0.02559361     -0.00033928
    2
 MD step:        4050 time   9.7964815223452497     
 H      0.19663643      0.17822777     -0.33144124      0.01568803      0.01716839     -0.00339536
 H      0.44568344      0.24288779      0.31718890      0.04987835      0.02581802      0.00194052
    2
 MD step:        4100 time   9.9174257386705005     
 H      0.19848356      0.18029128     -0.33198125      0.01487155      0.01695780     -0.00549740
 H      0.45176619      0.24602324      0.31755297      0.05069483      0.02602861      0.00404256
    2
 MD step:        4150 time   10.038369954995749     
 H      0.20023620      0.18233032     -0.33276333      0.01412522      0.01676389     -0.00739863
 H      0.45794342      0.24918316      0.31815909      0.05144117      0.02622252      0.00594379
    2
 MD step:        4200 time   10.159314171321000     
 H      0.20190269      0.18434690     -0.33376369      0.01344098      0.01658575     -0.00911812
 H      0.46420681      0.25236553      0.31898350      0.05212541      0.02640066      0.00766328
    2
 MD step:        4250 time   10.280258387646251     
 H      0.20348939      0.18634277     -0.33496278      0.01280445      0.01642110     -0.01068862
 H      0.47054998      0.25556862      0.32000663      0.05276193      0.02656531      0.00923378
    2
 MD step:        4300 time   10.401202603971500     
 H      0.20500163      0.18831955     -0.33634341      0.01221256      0.01626988     -0.01211794
 H      0.47696761      0.25879080      0.32121130      0.05335383      0.02671652      0.01066310
    2
 MD step:        4350 time   10.522146820296751     
 H      0.20644578      0.19027908     -0.33788651      0.01168585      0.01613708     -0.01336297
 H      0.48345334      0.26203023      0.32257844      0.05388054      0.02684932      0.01190813
    2
 MD step:        4400 time   10.643091036622000     
 H      0.20783155      0.19222394     -0.33956647      0.01124960      0.01602798     -0.01437577
 H      0.48999745      0.26528433      0.32408245      0.05431678      0.02695843      0.01292093
    2
 MD step:        4450 time   10.764035252947250     
 H      0.20917162      0.19415731     -0.34135219      0.01093066      0.01594809     -0.01510742
 H      0.49658725      0.26854992      0.32569222      0.05463573      0.02703832      0.01365258
    2
 MD step:        4500 time   10.884979469272501     
 H      0.21048079      0.19608285     -0.34320884      0.01073576      0.01589848     -0.01555289
 H      0.50320795      0.27182333      0.32737291      0.05483062      0.02708793      0.01409805
    2
 MD step:        4550 time   11.005923685597750     
 H      0.21177345      0.19800415     -0.34510321      0.01065711      0.01587773     -0.01573416
 H      0.50984517      0.27510099      0.32909132      0.05490928      0.02710868      0.01427932
    2
 MD step:        4600 time   11.126867901923001     
 H      0.21306252      0.19992449     -0.34700589      0.01067483      0.01588206     -0.01569576
 H      0.51648597      0.27837960      0.33081806      0.05489155      0.02710435      0.01424092
    2
 MD step:        4650 time   11.247812118248250     
 H      0.21435872      0.20184670     -0.34889264      0.01077138      0.01590792     -0.01547731
 H      0.52311965      0.28165636      0.33252885      0.05479500      0.02707849      0.01402247
    2
 MD step:        4700 time   11.368756334573501     
 H      0.21567078      0.20377312     -0.35074384      0.01093291      0.01595173     -0.01511357
 H      0.52973746      0.28492889      0.33420409      0.05463348      0.02703468      0.01365872
    2
 MD step:        4750 time   11.489700550898750     
 H      0.21700642      0.20570592     -0.35254234      0.01115950      0.01601297     -0.01461018
 H      0.53633170      0.28819505      0.33582664      0.05440688      0.02697344      0.01315534
    2
 MD step:        4800 time   11.610644767224001     
 H      0.21837294      0.20764714     -0.35427233      0.01144611      0.01609023     -0.01398167
 H      0.54289505      0.29145278      0.33738067      0.05412027      0.02689618      0.01252682
    2
 MD step:        4850 time   11.731588983549251     
 H      0.21977798      0.20959886     -0.35591784      0.01180166      0.01618627     -0.01320981
 H      0.54941989      0.29470002      0.33885023      0.05376473      0.02680014      0.01175496
    2
 MD step:        4900 time   11.852533199874500     
 H      0.22123013      0.21156334     -0.35746154      0.01222504      0.01630105     -0.01229911
 H      0.55589761      0.29793450      0.34021798      0.05334135      0.02668536      0.01084426
    2
 MD step:        4950 time   11.973477416199751     
 H      0.22273812      0.21354280     -0.35888643      0.01272517      0.01643603     -0.01123756
 H      0.56231950      0.30115399      0.34146691      0.05284122      0.02655038      0.00978272
    2
 MD step:        5000 time   12.094421632525000     
 H      0.22431166      0.21553975     -0.36017383      0.01330579      0.01659085     -0.01002602
 H      0.56867583      0.30435601      0.34257836      0.05226059      0.02639556      0.00857118
    2
 MD step:        5050 time   12.215365848850251     
 H      0.22595986      0.21755650     -0.36130666      0.01396269      0.01676390     -0.00867804
 H      0.57495751      0.30753821      0.34353523      0.05160370      0.02622251      0.00722320
    2
 MD step:        5100 time   12.336310065175500     
 H      0.22769206      0.21959543     -0.36226780      0.01469618      0.01695608     -0.00719224
 H      0.58115518      0.31069824      0.34432042      0.05087021      0.02603033      0.00573740
    2
 MD step:        5150 time   12.457254281500751     
 H      0.22951685      0.22165870     -0.36304207      0.01549232      0.01716487     -0.00559490
 H      0.58726027      0.31383393      0.34491873      0.05007407      0.02582154      0.00414006
    2
 MD step:        5200 time   12.578198497826001     
 H      0.23144176      0.22374816     -0.36361670      0.01634865      0.01738956     -0.00389338
 H      0.59326523      0.31694343      0.34531740      0.04921774      0.02559685      0.00243854
    2
 MD step:        5250 time   12.699142714151250     
 H      0.23347360      0.22586553     -0.36398047      0.01725519      0.01762655     -0.00211297
 H      0.59916327      0.32002501      0.34550522      0.04831119      0.02535986      0.00065813
    2
 MD step:        5300 time   12.820086930476501     
 H      0.23561740      0.22801210     -0.36412568      0.01819967      0.01787219     -0.00028052
 H      0.60494935      0.32307740      0.34547448      0.04736672      0.02511422     -0.00117433
    2
 MD step:        5350 time   12.941031146801750     
 H      0.23787716      0.23018890     -0.36404669      0.01917372      0.01812523      0.00159027
 H      0.61061946      0.32609955      0.34521954      0.04639267      0.02486118     -0.00304511
    2
 MD step:        5400 time   13.061975363127001     
 H      0.24025551      0.23239661     -0.36374072      0.02015957      0.01838225      0.00346898
 H      0.61617098      0.32909081      0.34473760      0.04540681      0.02460416     -0.00492382
    2
 MD step:        5450 time   13.182919579452250     
 H      0.24275331      0.23463542     -0.36320829      0.02114745      0.01864059      0.00533654
 H      0.62160305      0.33205095      0.34402923      0.04441893      0.02434581     -0.00679138
    2
 MD step:        5500 time   13.303863795777501     
 H      0.24537057      0.23690535     -0.36245151      0.02212836      0.01889679      0.00717242
 H      0.62691568      0.33497998      0.34309649      0.04343803      0.02408962     -0.00862726
    2
 MD step:        5550 time   13.424808012102751     
 H      0.24810533      0.23920597     -0.36147584      0.02308690      0.01914640      0.00894730
 H      0.63211079      0.33787832      0.34194487      0.04247948      0.02384001     -0.01040214
    2
 MD step:        5600 time   13.545752228428000     
 H      0.25095457      0.24153655     -0.36028868      0.02402167      0.01939016      0.01066322
 H      0.63719143      0.34074669      0.34058175      0.04154472      0.02359625     -0.01211806
    2
 MD step:        5650 time   13.666696444753251     
 H      0.25391427      0.24389611     -0.35889916      0.02491452      0.01962478      0.01229262
 H      0.64216160      0.34358609      0.33901627      0.04065186      0.02336163     -0.01374747
    2
 MD step:        5700 time   13.787640661078500     
 H      0.25697873      0.24628319     -0.35731937      0.02575956      0.01984861      0.01382575
 H      0.64702701      0.34639797      0.33726053      0.03980682      0.02313780     -0.01528059
    2
 MD step:        5750 time   13.908584877403751     
 H      0.26014244      0.24869642     -0.35556076      0.02655179      0.02005884      0.01525069
 H      0.65179318      0.34918370      0.33532597      0.03901459      0.02292757     -0.01670553
    2
 MD step:        5800 time   14.029529093729000     
 H      0.26339828      0.25113406     -0.35363731      0.02728035      0.02025163      0.01654721