2
Geometry Step: 149
    H     0     0    -0.37      1
    H     0     0     0.37      1