    2
 MD step:           0 time   0.0000000000000000     
 H      0.00000000      0.00000000     -0.37000000     -0.00394415     -0.01801187     -0.00276448
 H      0.00000000      0.00000000      0.37000000      0.00141860      0.00552480     -0.03648492
    2
 MD step:          50 time  0.12094421632525000     
 H     -0.00047743     -0.00217845     -0.37034683     -0.00395794     -0.01801239     -0.00301899
 H      0.00017198      0.00066821      0.36559985      0.00143239      0.00552533     -0.03623041
    2
 MD step:         100 time  0.24188843265050000     
 H     -0.00095730     -0.00435707     -0.37073715     -0.00396380     -0.01801494     -0.00345553
 H      0.00034640      0.00133660      0.36124318      0.00143824      0.00552787     -0.03579386
    2
 MD step:         150 time  0.36283264897575002     
 H     -0.00143563     -0.00653618     -0.37118908     -0.00395413     -0.01802067     -0.00404023
 H      0.00051927      0.00200547      0.35694812      0.00142858      0.00553360     -0.03520917
    2
 MD step:         200 time  0.48377686530100000     
 H     -0.00191382     -0.00871627     -0.37172372     -0.00395505     -0.01803146     -0.00485243
 H      0.00069201      0.00267531      0.35273577      0.00142950      0.00554440     -0.03439697
    2
 MD step:         250 time  0.60472108162625005     
 H     -0.00239294     -0.01089803     -0.37236842     -0.00396265     -0.01804828     -0.00581332
 H      0.00086568      0.00334684      0.34863349      0.00143709      0.00556121     -0.03343607
    2
 MD step:         300 time  0.72566529795150003     
 H     -0.00287294     -0.01308222     -0.37313569     -0.00398129     -0.01807212     -0.00690368
 H      0.00104023      0.00402079      0.34465376      0.00145573      0.00558506     -0.03234572
    2
 MD step:         350 time  0.84660951427675002     
 H     -0.00335407     -0.01526985     -0.37404706     -0.00396954     -0.01810515     -0.00820194
 H      0.00121591      0.00469818      0.34081815      0.00144398      0.00561809     -0.03104745
    2
 MD step:         400 time  0.96755373060200001     
 H     -0.00383441     -0.01746197     -0.37512231     -0.00397651     -0.01814647     -0.00958910
 H      0.00139080      0.00538007      0.33714641      0.00145095      0.00565941     -0.02966030
    2
 MD step:         450 time   1.0884979469272500     
 H     -0.00431743     -0.01965972     -0.37637441     -0.00401393     -0.01819858     -0.01113599
 H      0.00156836      0.00606758      0.33365152      0.00148837      0.00571152     -0.02811340
    2
 MD step:         500 time   1.2094421632525001     
 H     -0.00480273     -0.02186439     -0.37781840     -0.00400848     -0.01826056     -0.01275620
 H      0.00174821      0.00676201      0.33034853      0.00148292      0.00577350     -0.02649319
    2
 MD step:         550 time   1.3303863795777500     
 H     -0.00528857     -0.02407712     -0.37946199     -0.00402432     -0.01833225     -0.01444629
 H      0.00192860      0.00746450      0.32724513      0.00149876      0.00584519     -0.02480310
    2
 MD step:         600 time   1.4513305959030001     
 H     -0.00577660     -0.02629924     -0.38131935     -0.00404887     -0.01841541     -0.01626380
 H      0.00211118      0.00817638      0.32435550      0.00152331      0.00592834     -0.02298559
    2
 MD step:         650 time   1.5722748122282502     
 H     -0.00626733     -0.02853186     -0.38339318     -0.00407276     -0.01850593     -0.01803805
 H      0.00229646      0.00889876      0.32168234      0.00154720      0.00601886     -0.02121134
    2
 MD step:         700 time   1.6932190285535000     
 H     -0.00676210     -0.03077600     -0.38568425     -0.00409572     -0.01860617     -0.01986046
 H      0.00248578      0.00963267      0.31922643      0.00157016      0.00611911     -0.01938894
    2
 MD step:         750 time   1.8141632448787501     
 H     -0.00725766     -0.03303271     -0.38819693     -0.00410646     -0.01871231     -0.02166699
 H      0.00267589      0.01037914      0.31699212      0.00158090      0.00622524     -0.01758241
    2
 MD step:         800 time   1.9351074612040000     
 H     -0.00775635     -0.03530253     -0.39092440     -0.00414796     -0.01882406     -0.02344492
 H      0.00286913      0.01113872      0.31497260      0.00162240      0.00633699     -0.01580447
    2
 MD step:         850 time   2.0560516775292501     
 H     -0.00826021     -0.03758616     -0.39386423     -0.00417117     -0.01893924     -0.02514713
 H      0.00306753      0.01191211      0.31316544      0.00164561      0.00645218     -0.01410226
    2
 MD step:         900 time   2.1769958938545000     
 H     -0.00876591     -0.03988371     -0.39700302     -0.00419602     -0.01905406     -0.02673818
 H      0.00326778      0.01269942      0.31155725      0.00167047      0.00656699     -0.01251122
    2
 MD step:         950 time   2.2979401101797499     
 H     -0.00927453     -0.04219522     -0.40033200     -0.00421818     -0.01917039     -0.02830385
 H      0.00347095      0.01350070      0.31013924      0.00169262      0.00668333     -0.01094555
    2
 MD step:        1000 time   2.4188843265050002     
 H     -0.00978636     -0.04452051     -0.40384028     -0.00424413     -0.01928057     -0.02967779
 H      0.00367733      0.01431575      0.30890053      0.00171858      0.00679351     -0.00957161
    2
 MD step:        1050 time   2.5398285428302501     
 H     -0.01030254     -0.04685880     -0.40750635     -0.00428766     -0.01938595     -0.03092654
 H      0.00388806      0.01514380      0.30781961      0.00176210      0.00689888     -0.00832285
    2
 MD step:        1100 time   2.6607727591554999     
 H     -0.01082082     -0.04920946     -0.41131676     -0.00428513     -0.01948385     -0.03205521
 H      0.00410089      0.01598423      0.30688304      0.00175957      0.00699679     -0.00719418
    2
 MD step:        1150 time   2.7817169754807503     
 H     -0.01134027     -0.05157114     -0.41525060     -0.00430711     -0.01956870     -0.03298017
 H      0.00431488      0.01683566      0.30606989      0.00178155      0.00708164     -0.00626923
    2
 MD step:        1200 time   2.9026611918060001     
 H     -0.01186391     -0.05394255     -0.41929005     -0.00434668     -0.01964382     -0.03377969
 H      0.00453307      0.01769683      0.30536235      0.00182112      0.00715676     -0.00546970
    2
 MD step:        1250 time   3.0236054081312500     
 H     -0.01238918     -0.05632204     -0.42341231     -0.00434280     -0.01970189     -0.03435717
 H      0.00475289      0.01856609      0.30473763      0.00181724      0.00721483     -0.00489222
    2
 MD step:        1300 time   3.1445496244565003     
 H     -0.01291516     -0.05870752     -0.42759311     -0.00435084     -0.01974380     -0.03476810
 H      0.00497342      0.01944133      0.30417143      0.00182529      0.00725674     -0.00448130
    2
 MD step:        1350 time   3.2654938407817502     
 H     -0.01344205     -0.06109725     -0.43181806     -0.00436309     -0.01977058     -0.03505275
 H      0.00519486      0.02032083      0.30364940      0.00183754      0.00728352     -0.00419665
    2
 MD step:        1400 time   3.3864380571070001     
 H     -0.01396967     -0.06348881     -0.43606102     -0.00436657     -0.01977431     -0.03508492
 H      0.00541703      0.02120214      0.30314537      0.00184102      0.00728725     -0.00416447
    2
 MD step:        1450 time   3.5073822734322500     
 H     -0.01449853     -0.06587974     -0.44029868     -0.00436705     -0.01976103     -0.03497569
 H      0.00564044      0.02208284      0.30263605      0.00184149      0.00727397     -0.00427370
    2
 MD step:        1500 time   3.6283264897575003     
 H     -0.01502493     -0.06826794     -0.44451626     -0.00434354     -0.01972711     -0.03472834
 H      0.00586139      0.02296080      0.30210664      0.00181798      0.00724005     -0.00452106
    2
 MD step:        1550 time   3.7492707060827501     
 H     -0.01554970     -0.07065049     -0.44868982     -0.00433888     -0.01966933     -0.03427295
 H      0.00608070      0.02383311      0.30153321      0.00181332      0.00718226     -0.00497644
    2
 MD step:        1600 time   3.8702149224080000     
 H     -0.01607525     -0.07302500     -0.45280139     -0.00434076     -0.01959360     -0.03369046
 H      0.00630080      0.02469738      0.30089779      0.00181521      0.00710653     -0.00555894
    2
 MD step:        1650 time   3.9911591387332503     
 H     -0.01659711     -0.07538904     -0.45683345     -0.00429266     -0.01949542     -0.03296009
 H      0.00651721      0.02555118      0.30018286      0.00176711      0.00700835     -0.00628931
    2
 MD step:        1700 time   4.1121033550585002     
 H     -0.01711460     -0.07773973     -0.46076689     -0.00426594     -0.01937423     -0.03207623
 H      0.00672925      0.02639163      0.29936932      0.00174038      0.00688717     -0.00717317
    2
 MD step:        1750 time   4.2330475713837501     
 H     -0.01763018     -0.08007485     -0.46459031     -0.00425866     -0.01923758     -0.03112406
 H      0.00693938      0.02721652      0.29844575      0.00173311      0.00675052     -0.00812533
    2
 MD step:        1800 time   4.3539917877090000     
 H     -0.01814219     -0.08239210     -0.46828807     -0.00420522     -0.01907776     -0.03000266
 H      0.00714593      0.02802353      0.29739653      0.00167966      0.00659070     -0.00924674
    2
 MD step:        1850 time   4.4749360040342498     
 H     -0.01864836     -0.08468871     -0.47184287     -0.00416359     -0.01889792     -0.02877316
 H      0.00734666      0.02880990      0.29620434      0.00163803      0.00641085     -0.01047623
    2
 MD step:        1900 time   4.5958802203594997     
 H     -0.01914926     -0.08696284     -0.47524868     -0.00412483     -0.01870564     -0.02753507
 H      0.00754211      0.02957380      0.29486315      0.00159927      0.00621858     -0.01171433
    2
 MD step:        1950 time   4.7168244366847505     
 H     -0.01964552     -0.08921251     -0.47849631     -0.00407518     -0.01849239     -0.02614588
 H      0.00773291      0.03031322      0.29336380      0.00154962      0.00600533     -0.01310352
    2
 MD step:        2000 time   4.8377686530100004     
 H     -0.02013566     -0.09143533     -0.48157043     -0.00403189     -0.01826310     -0.02467892
 H      0.00791760      0.03102581      0.29169093      0.00150633      0.00577604     -0.01457048
    2
 MD step:        2050 time   4.9587128693352502     
 H     -0.02061924     -0.09362983     -0.48446678     -0.00396308     -0.01802482     -0.02322442
 H      0.00809573      0.03171007      0.28984030      0.00143752      0.00553776     -0.01602498
    2
 MD step:        2100 time   5.0796570856605001     
 H     -0.02109525     -0.09579474     -0.48718518     -0.00390749     -0.01777199     -0.02170173
 H      0.00826628      0.03236474      0.28781171      0.00138193      0.00528493     -0.01754767
    2
 MD step:        2150 time   5.2006013019857500     
 H     -0.02156465     -0.09792815     -0.48971389     -0.00386131     -0.01750624     -0.02011492
 H      0.00843023      0.03298791      0.28559343      0.00133575      0.00501918     -0.01913448
    2
 MD step:        2200 time   5.3215455183109999     
 H     -0.02202839     -0.10002917     -0.49205115     -0.00379511     -0.01723694     -0.01854498
 H      0.00858852      0.03357869      0.28318370      0.00126955      0.00474987     -0.02070442
    2
 MD step:        2250 time   5.4424897346362506     
 H     -0.02248229     -0.10209721     -0.49420042     -0.00371720     -0.01695924     -0.01698377
 H      0.00873698      0.03413650      0.28058599      0.00119165      0.00447217     -0.02226563
    2
 MD step:        2300 time   5.5634339509615005     
 H     -0.02292814     -0.10413103     -0.49615717     -0.00366067     -0.01667356     -0.01538528
 H      0.00887738      0.03466008      0.27779575      0.00113511      0.00418649     -0.02386412
    2
 MD step:        2350 time   5.6843781672867504     
 H     -0.02336880     -0.10613043     -0.49792356     -0.00361758     -0.01638993     -0.01382738
 H      0.00901258      0.03514924      0.27481515      0.00109202      0.00390286     -0.02542201
    2
 MD step:        2400 time   5.8053223836120003     
 H     -0.02380058     -0.10809554     -0.49950372     -0.00352458     -0.01610587     -0.01230975
 H      0.00913891      0.03560411      0.27164832      0.00099903      0.00361881     -0.02693965
    2
 MD step:        2450 time   5.9262665999372501     
 H     -0.02422271     -0.11002610     -0.50090054     -0.00345830     -0.01581945     -0.01079746
 H      0.00925559      0.03602443      0.26829815      0.00093275      0.00333239     -0.02845193
    2
 MD step:        2500 time   6.0472108162625000     
 H     -0.02463860     -0.11192259     -0.50212060     -0.00342293     -0.01554387     -0.00938905
 H      0.00936603      0.03641068      0.26477123      0.00089738      0.00305681     -0.02986034
    2
 MD step:        2550 time   6.1681550325877499     
 H     -0.02504842     -0.11378624     -0.50317261     -0.00334524     -0.01527482     -0.00801495
 H      0.00947040      0.03676410      0.26107625      0.00081968      0.00278775     -0.03123444
    2
 MD step:        2600 time   6.2890992489130007     
 H     -0.02544872     -0.11561760     -0.50406142     -0.00327866     -0.01501106     -0.00669240
 H      0.00956525      0.03708522      0.25721807      0.00075311      0.00252400     -0.03255700
    2
 MD step:        2650 time   6.4100434652382505     
 H     -0.02584200     -0.11741813     -0.50479853     -0.00323156     -0.01476692     -0.00552512
 H      0.00965307      0.03737551      0.25320820      0.00070600      0.00227986     -0.03372428
    2
 MD step:        2700 time   6.5309876815635004     
 H     -0.02623049     -0.11919011     -0.50539974     -0.00318343     -0.01453688     -0.00441837
 H      0.00973611      0.03763725      0.24906242      0.00065787      0.00204982     -0.03483102
    2
 MD step:        2750 time   6.6519318978887503     
 H     -0.02661200     -0.12093507     -0.50587096     -0.00313247     -0.01432193     -0.00339077
 H      0.00981217      0.03787197      0.24478665      0.00060692      0.00183487     -0.03585862
    2
 MD step:        2800 time   6.7728761142140002     
 H     -0.02698789     -0.12265553     -0.50622687     -0.00308203     -0.01413417     -0.00253654
 H      0.00988261      0.03808220      0.24039557      0.00055648      0.00164711     -0.03671286
    2
 MD step:        2850 time   6.8938203305392500     
 H     -0.02735868     -0.12435500     -0.50649002     -0.00304951     -0.01397183     -0.00181649
 H      0.00994795      0.03827143      0.23591173      0.00052395      0.00148477     -0.03743290
    2
 MD step:        2900 time   7.0147645468644999     
 H     -0.02772561     -0.12603603     -0.50666976     -0.00302671     -0.01383218     -0.00118451
 H      0.01000942      0.03844222      0.23134449      0.00050116      0.00134512     -0.03806488
    2
 MD step:        2950 time   7.1357087631897507     
 H     -0.02809069     -0.12770238     -0.50678377     -0.00299987     -0.01373032     -0.00073975
 H      0.01006905      0.03859833      0.22671151      0.00047431      0.00124326     -0.03850964
    2
 MD step:        3000 time   7.2566529795150005     
 H     -0.02845136     -0.12935850     -0.50685580     -0.00297163     -0.01366010     -0.00046168
 H      0.01012427      0.03874421      0.22203655      0.00044608      0.00117304     -0.03878772
    2
 MD step:        3050 time   7.3775971958402504     
 H     -0.02881050     -0.13100794     -0.50690057     -0.00297628     -0.01362421     -0.00031992
 H      0.01017796      0.03888342      0.21733433      0.00045073      0.00113714     -0.03892948
    2
 MD step:        3100 time   7.4985414121655003     
 H     -0.02917194     -0.13265581     -0.50694036     -0.00298819     -0.01363260     -0.00036300
 H      0.01023394      0.03902105      0.21262714      0.00046263      0.00114553     -0.03888640
    2
 MD step:        3150 time   7.6194856284907502     
 H     -0.02953232     -0.13430701     -0.50699512     -0.00298038     -0.01367827     -0.00056318
 H      0.01028887      0.03916201      0.20793491      0.00045483      0.00119121     -0.03868621
    2
 MD step:        3200 time   7.7404298448160000     
 H     -0.02989396     -0.13596615     -0.50708373     -0.00300507     -0.01376822     -0.00095302
 H      0.01034506      0.03931092      0.20327653      0.00047951      0.00128116     -0.03829638
    2
 MD step:        3250 time   7.8613740611412499     
 H     -0.03026041     -0.13763938     -0.50723327     -0.00304811     -0.01390699     -0.00152990
 H      0.01040606      0.03947391      0.19867908      0.00052255      0.00141993     -0.03771950
    2
 MD step:        3300 time   7.9823182774665007     
 H     -0.03063089     -0.13933158     -0.50745864     -0.00308802     -0.01408363     -0.00222438
 H      0.01047109      0.03965586      0.19415747      0.00056246      0.00159657     -0.03702502
    2
 MD step:        3350 time   8.1032624937917497     
 H     -0.03100728     -0.14104824     -0.50778011     -0.00313211     -0.01431348     -0.00313864
 H      0.01054203      0.03986229      0.18973195      0.00060655      0.00182642     -0.03611075
    2
 MD step:        3400 time   8.2242067101170004     
 H     -0.03138963     -0.14279543     -0.50822322     -0.00319269     -0.01458362     -0.00419178
 H      0.01061892      0.04009924      0.18542808      0.00066713      0.00209656     -0.03505761
    2
 MD step:        3450 time   8.3451509264422494     
 H     -0.03178085     -0.14457771     -0.50880034     -0.00328633     -0.01489758     -0.00538206
 H      0.01070470      0.04037128      0.18125820      0.00076078      0.00241052     -0.03386734
    2
 MD step:        3500 time   8.4660951427675002     
 H     -0.03218295     -0.14640080     -0.50953069     -0.00335339     -0.01525648     -0.00672013
 H      0.01080134      0.04068414      0.17724157      0.00082783      0.00276941     -0.03252927
    2
 MD step:        3550 time   8.5870393590927510     
 H     -0.03259334     -0.14826931     -0.51042914     -0.00343815     -0.01564696     -0.00814760
 H      0.01090629      0.04104240      0.17339304      0.00091259      0.00315990     -0.03110179
    2
 MD step:        3600 time   8.7079835754179999     
 H     -0.03301581     -0.15018757     -0.51150958     -0.00355437     -0.01608120     -0.00973976
 H      0.01102330      0.04145042      0.16972649      0.00102882      0.00359414     -0.02950963
    2
 MD step:        3650 time   8.8289277917432507     
 H     -0.03345172     -0.15215998     -0.51278474     -0.00365179     -0.01653854     -0.01135145
 H      0.01115376      0.04191260      0.16625466      0.00112624      0.00405148     -0.02789795
    2
 MD step:        3700 time   8.9498720080684997     
 H     -0.03390073     -0.15418907     -0.51425780     -0.00376921     -0.01702139     -0.01302715
 H      0.01129732      0.04243145      0.16298073      0.00124366      0.00453432     -0.02622225
    2
 MD step:        3750 time   9.0708162243937505     
 H     -0.03436267     -0.15627830     -0.51594067     -0.00387498     -0.01752788     -0.01479439
 H      0.01145380      0.04301045      0.15991662      0.00134942      0.00504082     -0.02445500
    2
 MD step:        3800 time   9.1917604407189994     
 H     -0.03483852     -0.15842886     -0.51783350     -0.00400107     -0.01803836     -0.01651872
 H      0.01162420      0.04365076      0.15706245      0.00147551      0.00555130     -0.02273068
    2
 MD step:        3850 time   9.3127046570442502     
 H     -0.03533113     -0.16064206     -0.51993685     -0.00413068     -0.01856061     -0.01825721
 H      0.01181137      0.04435373      0.15441882      0.00160512      0.00607355     -0.02099218
    2
 MD step:        3900 time   9.4336488733695010     
 H     -0.03583652     -0.16291814     -0.52224808     -0.00423445     -0.01907494     -0.01994419
 H      0.01201130      0.04511957      0.15198306      0.00170889      0.00658788     -0.01930521
    2
 MD step:        3950 time   9.5545930896947500     
 H     -0.03635582     -0.16525587     -0.52476033     -0.00435679     -0.01958413     -0.02161099
 H      0.01222515      0.04594707      0.14974833      0.00183123      0.00709707     -0.01763841
    2
 MD step:        4000 time   9.6755373060200007     
 H     -0.03689034     -0.16765458     -0.52747100     -0.00447274     -0.02007564     -0.02317947
 H      0.01245422      0.04683554      0.14771200      0.00194718      0.00758858     -0.01606992
    2
 MD step:        4050 time   9.7964815223452497     
 H     -0.03743819     -0.17011084     -0.53036272     -0.00459062     -0.02053874     -0.02462363
 H      0.01269662      0.04778156      0.14585673      0.00206507      0.00805168     -0.01462576
    2
 MD step:        4100 time   9.9174257386705005     
 H     -0.03799870     -0.17262196     -0.53342575     -0.00467533     -0.02098085     -0.02601609
 H      0.01295168      0.04878244      0.14417278      0.00214978      0.00849378     -0.01323331
    2
 MD step:        4150 time   10.038369954995749     
 H     -0.03856967     -0.17518377     -0.53664699     -0.00476629     -0.02137513     -0.02722256
 H      0.01321720      0.04983401      0.14264703      0.00224073      0.00888807     -0.01202683
    2
 MD step:        4200 time   10.159314171321000     
 H     -0.03915289     -0.17779117     -0.54000732     -0.00487604     -0.02173552     -0.02831942
 H      0.01349496      0.05093117      0.14126038      0.00235048      0.00924845     -0.01092997
    2
 MD step:        4250 time   10.280258387646251     
 H     -0.03974579     -0.18043931     -0.54349015     -0.00492544     -0.02204633     -0.02924775
 H      0.01378241      0.05206907      0.13999622      0.00239989      0.00955927     -0.01000165
    2
 MD step:        4300 time   10.401202603971500     
 H     -0.04034515     -0.18312153     -0.54707390     -0.00498401     -0.02230111     -0.02999799
 H      0.01407632      0.05324105      0.13883298      0.00245846      0.00981405     -0.00925141
    2
 MD step:        4350 time   10.522146820296751     
 H     -0.04095182     -0.18583211     -0.55074340     -0.00504750     -0.02251307     -0.03064647
 H      0.01437754      0.05444140      0.13775549      0.00252194      0.01002600     -0.00860292
    2
 MD step:        4400 time   10.643091036622000     
 H     -0.04156394     -0.18856425     -0.55447627     -0.00507507     -0.02265666     -0.03105275
 H      0.01468421      0.05566330      0.13674137      0.00254951      0.01016960     -0.00819665
    2
 MD step:        4450 time   10.764035252947250     
 H     -0.04217987     -0.19131032     -0.55824829     -0.00510066     -0.02274693     -0.03130882
 H      0.01499469      0.05689913      0.13576640      0.00257511      0.01025986     -0.00794058
    2
 MD step:        4500 time   10.884979469272501     
 H     -0.04279652     -0.19406428     -0.56204549     -0.00509931     -0.02278207     -0.03144499
 H      0.01530589      0.05814286      0.13481662      0.00257376      0.01029501     -0.00780441
    2
 MD step:        4550 time   11.005923685597750     
 H     -0.04341300     -0.19681807     -0.56584438     -0.00509787     -0.02274783     -0.03135574
 H      0.01561692      0.05938641      0.13386852      0.00257232      0.01026077     -0.00789366
    2
 MD step:        4600 time   11.126867901923001     
 H     -0.04403022     -0.19956468     -0.56962463     -0.00509644     -0.02266287     -0.03113088
 H      0.01592868      0.06062278      0.13290178      0.00257088      0.01017581     -0.00811852
    2
 MD step:        4650 time   11.247812118248250     
 H     -0.04464300     -0.20229756     -0.57336930     -0.00503938     -0.02251861     -0.03076491
 H      0.01623601      0.06184541      0.13189947      0.00251382      0.01003154     -0.00848448
    2
 MD step:        4700 time   11.368756334573501     
 H     -0.04524972     -0.20500895     -0.57705826     -0.00499456     -0.02231116     -0.03022487
 H      0.01653728      0.06304657      0.13084144      0.00246901      0.00982409     -0.00902453
    2
 MD step:        4750 time   11.489700550898750     
 H     -0.04585215     -0.20769275     -0.58067734     -0.00496258     -0.02206153     -0.02959427
 H      0.01683425      0.06422014      0.12971353      0.00243702      0.00957447     -0.00965513
    2
 MD step:        4800 time   11.610644767224001     
 H     -0.04644702     -0.21034287     -0.58420956     -0.00487208     -0.02175217     -0.02879363
 H      0.01712367      0.06536001      0.12849877      0.00234652      0.00926510     -0.01045576
    2
 MD step:        4850 time   11.731588983549251     
 H     -0.04703137     -0.21295219     -0.58763662     -0.00478870     -0.02139116     -0.02786880
 H      0.01740258      0.06645909      0.12717883      0.00226314      0.00890410     -0.01138059
    2
 MD step:        4900 time   11.852533199874500     
 H     -0.04760554     -0.21551591     -0.59095028     -0.00470944     -0.02099648     -0.02690845
 H      0.01767130      0.06751258      0.12574551      0.00218388      0.00850942     -0.01234095
    2
 MD step:        4950 time   11.973477416199751     
 H     -0.04816900     -0.21802875     -0.59413784     -0.00460169     -0.02054873     -0.02578078
 H      0.01792930      0.06851518      0.12418608      0.00207613      0.00806166     -0.01346862
    2
 MD step:        5000 time   12.094421632525000     
 H     -0.04871935     -0.22048487     -0.59718293     -0.00449809     -0.02006150     -0.02456180
 H      0.01817420      0.06946107      0.12248418      0.00197253      0.00757444     -0.01468759
    2
 MD step:        5050 time   12.215365848850251     
 H     -0.04925554     -0.22288057     -0.60007957     -0.00436953     -0.01955060     -0.02333877
 H      0.01840494      0.07034652      0.12063383      0.00184397      0.00706354     -0.01591063
    2
 MD step:        5100 time   12.336310065175500     
 H     -0.04977676     -0.22521236     -0.60282346     -0.00424543     -0.01900096     -0.02200838
 H      0.01862070      0.07116808      0.11863074      0.00171988      0.00651390     -0.01724101
    2
 MD step:        5150 time   12.457254281500751     
 H     -0.05028287     -0.22747558     -0.60540087     -0.00412928     -0.01842215     -0.02060795
 H      0.01882136      0.07192106      0.11646116      0.00160373      0.00593508     -0.01864145
    2
 MD step:        5200 time   12.578198497826001     
 H     -0.05077404     -0.22966808     -0.60780813     -0.00398251     -0.01783199     -0.01920610
 H      0.01900708      0.07260333      0.11412144      0.00145695      0.00534493     -0.02004330
    2
 MD step:        5250 time   12.699142714151250     
 H     -0.05124641     -0.23178791     -0.61004550     -0.00383270     -0.01721714     -0.01777261
 H      0.01917400      0.07321292      0.11161182      0.00130715      0.00473008     -0.02147678
    2
 MD step:        5300 time   12.820086930476501     
 H     -0.05170150     -0.23383198     -0.61210516     -0.00369971     -0.01658524     -0.01629455
 H      0.01932364      0.07374675      0.10892449      0.00117416      0.00409817     -0.02295485
    2
 MD step:        5350 time   12.941031146801750     
 H     -0.05214174     -0.23579965     -0.61398701     -0.00356833     -0.01595314     -0.01482517
 H      0.01945843      0.07420418      0.10605935      0.00104277      0.00346608     -0.02442422
    2
 MD step:        5400 time   13.061975363127001     
 H     -0.05256265     -0.23769057     -0.61569224     -0.00339697     -0.01531476     -0.01337261
 H      0.01957389      0.07458486      0.10301760      0.00087142      0.00282769     -0.02587679
    2
 MD step:        5450 time   13.182919579452250     
 H     -0.05296445     -0.23950365     -0.61722013     -0.00325035     -0.01466910     -0.01190328
 H      0.01967024      0.07488770      0.09979849      0.00072479      0.00218203     -0.02734612
    2
 MD step:        5500 time   13.303863795777501     
 H     -0.05335055     -0.24123970     -0.61857493     -0.00313452     -0.01404201     -0.01050337
 H      0.01975089      0.07511351      0.09640631      0.00060896      0.00155494     -0.02874603
    2
 MD step:        5550 time   13.424808012102751     
 H     -0.05372005     -0.24290048     -0.61976093     -0.00297070     -0.01342167     -0.00911425
 H      0.01981493      0.07526406      0.09284532      0.00044514      0.00093461     -0.03013515
    2
 MD step:        5600 time   13.545752228428000     
 H     -0.05407039     -0.24448651     -0.62078036     -0.00282580     -0.01280880     -0.00775150
 H      0.01985982      0.07533985      0.08911777      0.00030024      0.00032174     -0.03149790
    2
 MD step:        5650 time   13.666696444753251     
 H     -0.05440451     -0.24600038     -0.62164188     -0.00270711     -0.01223064     -0.00651266
 H      0.01988849      0.07534347      0.08523230      0.00018156     -0.00025643     -0.03273673
    2
 MD step:        5700 time   13.787640661078500     
 H     -0.05472470     -0.24744579     -0.62235606     -0.00257807     -0.01167372     -0.00529840
 H      0.01990323      0.07527865      0.08119949      0.00005251     -0.00081335     -0.03395100
    2
 MD step:        5750 time   13.908584877403751     
 H     -0.05502858     -0.24882521     -0.62292631     -0.00245385     -0.01114211     -0.00414235
 H      0.01990166      0.07514783      0.07702276     -0.00007170     -0.00134496     -0.03510704
    2
 MD step:        5800 time   14.029529093729000     
 H     -0.05531821     -0.25014293     -0.62336403     -0.00233789     -0.01065815     -0.00313055