    2
 MD step:           0 time   0.0000000000000000     
 H      0.00000000      0.00000000     -0.37000000     -0.00118410     -0.01129149      0.01377967
 H      0.00000000      0.00000000      0.37000000     -0.01002067      0.00330548     -0.01657199
    2
 MD step:          50 time  0.12094421632525000     
 H     -0.00014594     -0.00136565     -0.36834885     -0.00128490     -0.01129193      0.01338697
 H     -0.00120922      0.00039979      0.36801114     -0.00991987      0.00330593     -0.01617930
    2
 MD step:         100 time  0.24188843265050000     
 H     -0.00030859     -0.00273151     -0.36678599     -0.00139623     -0.01129559      0.01231187
 H     -0.00240172      0.00079979      0.36611056     -0.00980854      0.00330958     -0.01510420
    2
 MD step:         150 time  0.36283264897575002     
 H     -0.00050294     -0.00409818     -0.36541640     -0.00170347     -0.01130575      0.01033786
 H     -0.00356252      0.00120060      0.36440326     -0.00950130      0.00331975     -0.01313019
    2
 MD step:         200 time  0.48377686530100000     
 H     -0.00073175     -0.00546645     -0.36430197     -0.00208683     -0.01132138      0.00810230
 H     -0.00468886      0.00160301      0.36295111     -0.00911794      0.00333537     -0.01089463
    2
 MD step:         250 time  0.60472108162625005     
 H     -0.00098939     -0.00683668     -0.36342069     -0.00224962     -0.01133700      0.00649434
 H     -0.00578637      0.00200737      0.36173211     -0.00895516      0.00335099     -0.00928666
    2
 MD step:         300 time  0.72566529795150003     
 H     -0.00126399     -0.00820862     -0.36269921     -0.00227105     -0.01134985      0.00550531
 H     -0.00686692      0.00241345      0.36067291     -0.00893372      0.00336384     -0.00829763
    2
 MD step:         350 time  0.84660951427675002     
 H     -0.00154350     -0.00958221     -0.36209628     -0.00237659     -0.01136627      0.00436621
 H     -0.00794257      0.00282118      0.35973227     -0.00882818      0.00338026     -0.00715854
    2
 MD step:         400 time  0.96755373060200001     
 H     -0.00183402     -0.01095856     -0.36166421     -0.00253802     -0.01139692      0.00253564
 H     -0.00900720      0.00323167      0.35896249     -0.00866675      0.00341091     -0.00532796
    2
 MD step:         450 time   1.0884979469272500     
 H     -0.00215525     -0.01233962     -0.36150275     -0.00273866     -0.01144326      0.00010339
 H     -0.01004112      0.00364687      0.35846331     -0.00846611      0.00345726     -0.00289572
    2
 MD step:         500 time   1.2094421632525001     
 H     -0.00251147     -0.01372661     -0.36164691     -0.00301426     -0.01149239     -0.00229310
 H     -0.01104005      0.00406800      0.35826975     -0.00819051      0.00350638     -0.00049923
    2
 MD step:         550 time   1.3303863795777500     
 H     -0.00288763     -0.01511897     -0.36203165     -0.00318769     -0.01153034     -0.00395038
 H     -0.01201904      0.00449449      0.35831678     -0.00801708      0.00354433      0.00115805
    2
 MD step:         600 time   1.4513305959030001     
 H     -0.00327179     -0.01651527     -0.36257209     -0.00317954     -0.01155947     -0.00497926
 H     -0.01299004      0.00492493      0.35851950     -0.00802523      0.00357346      0.00218694
    2
 MD step:         650 time   1.5722748122282502     
 H     -0.00366383     -0.01791546     -0.36325282     -0.00326808     -0.01159775     -0.00631757
 H     -0.01395315      0.00535927      0.35886252     -0.00793669      0.00361174      0.00352524
    2
 MD step:         700 time   1.6932190285535000     
 H     -0.00407200     -0.01932163     -0.36413660     -0.00355825     -0.01165817     -0.00843673
 H     -0.01490013      0.00579957      0.35940858     -0.00764652      0.00367217      0.00564440
    2
 MD step:         750 time   1.8141632448787501     
 H     -0.00451016     -0.02073610     -0.36529298     -0.00381233     -0.01173140     -0.01076005
 H     -0.01581712      0.00624819      0.36022724     -0.00739244      0.00374539      0.00796772
    2
 MD step:         800 time   1.9351074612040000     
 H     -0.00498289     -0.02215893     -0.36671261     -0.00396076     -0.01179264     -0.01253203
 H     -0.01669955      0.00670515      0.36130916     -0.00724401      0.00380663      0.00973970
    2
 MD step:         850 time   2.0560516775292501     
 H     -0.00547509     -0.02358755     -0.36830103     -0.00409491     -0.01182729     -0.01353154
 H     -0.01756250      0.00716791      0.36255985     -0.00710986      0.00384128      0.01073921
    2
 MD step:         900 time   2.1769958938545000     
 H     -0.00597236     -0.02501919     -0.36996798     -0.00415759     -0.01184657     -0.01404749
 H     -0.01842038      0.00763369      0.36388909     -0.00704718      0.00386056      0.01125516
    2
 MD step:         950 time   2.2979401101797499     
 H     -0.00648023     -0.02645351     -0.37170663     -0.00421324     -0.01187598     -0.01475585
 H     -0.01926767      0.00810214      0.36529003     -0.00699153      0.00388998      0.01196352
    2
 MD step:        1000 time   2.4188843265050002     
 H     -0.00701117     -0.02789281     -0.37357609     -0.00449039     -0.01192900     -0.01615344
 H     -0.02009187      0.00857559      0.36682177     -0.00671438      0.00394300      0.01336111
    2
 MD step:        1050 time   2.5398285428302501     
 H     -0.00757275     -0.02933960     -0.37563049     -0.00488014     -0.01199413     -0.01785878
 H     -0.02088544      0.00905651      0.36853846     -0.00632463      0.00400813      0.01506645
    2
 MD step:        1100 time   2.6607727591554999     
 H     -0.00817047     -0.03079368     -0.37786526     -0.00510722     -0.01204414     -0.01905402
 H     -0.02164288      0.00954473      0.37043551     -0.00609755      0.00405814      0.01626169
    2
 MD step:        1150 time   2.7817169754807503     
 H     -0.00880069     -0.03225159     -0.38020559     -0.00524523     -0.01205690     -0.01943105
 H     -0.02236781      0.01003679      0.37243812     -0.00595954      0.00407090      0.01663873
    2
 MD step:        1200 time   2.9026611918060001     
 H     -0.00944798     -0.03370860     -0.38254708     -0.00541537     -0.01203228     -0.01916551
 H     -0.02307567      0.01052793      0.37444190     -0.00578940      0.00404628      0.01637319
    2
 MD step:        1250 time   3.0236054081312500     
 H     -0.01010569     -0.03516148     -0.38482728     -0.00550861     -0.01199350     -0.01859558
 H     -0.02377312      0.01101495      0.37638438     -0.00569616      0.00400749      0.01580326
    2
 MD step:        1300 time   3.1445496244565003     
 H     -0.01078288     -0.03661016     -0.38705631     -0.00562795     -0.01196738     -0.01828308
 H     -0.02445108      0.01149777      0.37827569     -0.00557682      0.00398138      0.01549076
    2
 MD step:        1350 time   3.2654938407817502     
 H     -0.01148734     -0.03805731     -0.38928752     -0.00598342     -0.01196680     -0.01862846
 H     -0.02510177      0.01197906      0.38016919     -0.00522135      0.00398080      0.01583613
    2
 MD step:        1400 time   3.3864380571070001     
 H     -0.01222572     -0.03950609     -0.39157802     -0.00638269     -0.01198827     -0.01935888
 H     -0.02571854      0.01246198      0.38212197     -0.00482208      0.00400226      0.01656656
    2
 MD step:        1450 time   3.5073822734322500     
 H     -0.01301032     -0.04095770     -0.39395740     -0.00664412     -0.01201166     -0.01997026
 H     -0.02628910      0.01294773      0.38416363     -0.00456065      0.00402566      0.01717793
    2
 MD step:        1500 time   3.6283264897575003     
 H     -0.01384312     -0.04241024     -0.39639895     -0.00697006     -0.01200566     -0.02020999
 H     -0.02681145      0.01343440      0.38626748     -0.00423471      0.00401966      0.01741767
    2
 MD step:        1550 time   3.7492707060827501     
 H     -0.01471125     -0.04385928     -0.39882657     -0.00736074     -0.01195102     -0.01983444
 H     -0.02729847      0.01391759      0.38835738     -0.00384403      0.00396501      0.01704211
    2
 MD step:        1600 time   3.8702149224080000     
 H     -0.01560821     -0.04529918     -0.40115660     -0.00756109     -0.01185161     -0.01867927
 H     -0.02775666      0.01439162      0.39034969     -0.00364369      0.00386560      0.01588694
    2
 MD step:        1650 time   3.9911591387332503     
 H     -0.01653429     -0.04672488     -0.40332486     -0.00770108     -0.01172111     -0.01708636
 H     -0.02818574      0.01485146      0.39218024     -0.00350369      0.00373510      0.01429403
    2
 MD step:        1700 time   4.1121033550585002     
 H     -0.01748308     -0.04813393     -0.40529763     -0.00798038     -0.01157991     -0.01553861
 H     -0.02859210      0.01529465      0.39381529     -0.00322439      0.00359391      0.01274628
    2
 MD step:        1750 time   4.2330475713837501     
 H     -0.01845519     -0.04952682     -0.40708720     -0.00820818     -0.01145733     -0.01421958
 H     -0.02897514      0.01572168      0.39526715     -0.00299659      0.00347133      0.01142725
    2
 MD step:        1800 time   4.3539917877090000     
 H     -0.01946461     -0.05090642     -0.40874822     -0.00841364     -0.01136846     -0.01332939
 H     -0.02932087      0.01613542      0.39659044     -0.00279113      0.00338245      0.01053707
    2
 MD step:        1850 time   4.4749360040342498     
 H     -0.02051699     -0.05227743     -0.41034756     -0.00888118     -0.01131158     -0.01311233
 H     -0.02962364      0.01654056      0.39785207     -0.00232359      0.00332558      0.01032000
    2
 MD step:        1900 time   4.5958802203594997     
 H     -0.02161266     -0.05364476     -0.41194627     -0.00940686     -0.01129217     -0.01341102
 H     -0.02988313      0.01694203      0.39911306     -0.00179791      0.00330616      0.01061870
    2
 MD step:        1950 time   4.7168244366847505     
 H     -0.02276470     -0.05501136     -0.41359278     -0.00973390     -0.01130495     -0.01388498
 H     -0.03008623      0.01734278      0.40042186     -0.00147087      0.00331894      0.01109265
    2
 MD step:        2000 time   4.8377686530100004     
 H     -0.02398100     -0.05637823     -0.41530648     -0.01017579     -0.01131150     -0.01439890
 H     -0.03022509      0.01774378      0.40179784     -0.00102898      0.00332550      0.01160657
    2
 MD step:        2050 time   4.9587128693352502     
 H     -0.02525131     -0.05774472     -0.41707036     -0.01081264     -0.01128417     -0.01473548
 H     -0.03030993      0.01814442      0.40322401     -0.00039213      0.00329816      0.01194315
    2
 MD step:        2100 time   5.0796570856605001     
 H     -0.02657294     -0.05910755     -0.41884565     -0.01123087     -0.01123165     -0.01459070
 H     -0.03034346      0.01854138      0.40466158      0.00002610      0.00324565      0.01179837
    2
 MD step:        2150 time   5.2006013019857500     
 H     -0.02795237     -0.06046116     -0.42058075     -0.01150510     -0.01114542     -0.01395612
 H     -0.03031918      0.01892913      0.40605897      0.00030033      0.00315941      0.01116379
    2
 MD step:        2200 time   5.3215455183109999     
 H     -0.02938020     -0.06180032     -0.42221356     -0.01197266     -0.01100160     -0.01293641
 H     -0.03024650      0.01930243      0.40735406      0.00076789      0.00301560      0.01014408
    2
 MD step:        2250 time   5.4424897346362506     
 H     -0.03084519     -0.06312055     -0.42368993     -0.01237967     -0.01082002     -0.01150298
 H     -0.03013666      0.01965680      0.40849271      0.00117489      0.00283401      0.00871065
    2
 MD step:        2300 time   5.5634339509615005     
 H     -0.03235340     -0.06441774     -0.42497801     -0.01257830     -0.01062722     -0.00978350
 H     -0.02998360      0.01998813      0.40944307      0.00137353      0.00264122      0.00699117
    2
 MD step:        2350 time   5.6843781672867504     
 H     -0.03390487     -0.06569005     -0.42606419     -0.01293899     -0.01041970     -0.00811668
 H     -0.02978729      0.02029458      0.41019154      0.00173422      0.00243370      0.00532435
    2
 MD step:        2400 time   5.8053223836120003     
 H     -0.03549071     -0.06693866     -0.42695527     -0.01339062     -0.01022396     -0.00669140
 H     -0.02955659      0.02057733      0.41074491      0.00218585      0.00223796      0.00389907
    2
 MD step:        2450 time   5.9262665999372501     
 H     -0.03711964     -0.06816596     -0.42768672     -0.01363742     -0.01007757     -0.00555867
 H     -0.02928282      0.02083876      0.41113864      0.00243265      0.00209156      0.00276634
    2
 MD step:        2500 time   6.0472108162625000     
 H     -0.03880293     -0.06937652     -0.42831616     -0.01401495     -0.00996627     -0.00490407
 H     -0.02895469      0.02108346      0.41143036      0.00281018      0.00198026      0.00211174
    2
 MD step:        2550 time   6.1681550325877499     
 H     -0.04053533     -0.07057794     -0.42891072     -0.01466398     -0.00989971     -0.00494781
 H     -0.02857744      0.02131902      0.41168720      0.00345921      0.00191370      0.00215548
    2
 MD step:        2600 time   6.2890992489130007     
 H     -0.04232319     -0.07177755     -0.42954403     -0.01513018     -0.00992895     -0.00567616
 H     -0.02814473      0.02155277      0.41198280      0.00392541      0.00194295      0.00288383
    2
 MD step:        2650 time   6.4100434652382505     
 H     -0.04418639     -0.07298190     -0.43029459     -0.01554356     -0.01002557     -0.00693600
 H     -0.02763668      0.02179126      0.41239564      0.00433879      0.00203957      0.00414367
    2
 MD step:        2700 time   6.5309876815635004     
 H     -0.04612453     -0.07419979     -0.43123808     -0.01634410     -0.01013850     -0.00871108
 H     -0.02705369      0.02204329      0.41300142      0.00513933      0.00215250      0.00591876
    2
 MD step:        2750 time   6.6519318978887503     
 H     -0.04813349     -0.07543921     -0.43243680     -0.01713309     -0.01032195     -0.01106262
 H     -0.02639988      0.02231685      0.41386243      0.00592832      0.00233595      0.00827029
    2
 MD step:        2800 time   6.7728761142140002     
 H     -0.05023214     -0.07670365     -0.43393585     -0.01763268     -0.01059396     -0.01383768
 H     -0.02565639      0.02261542      0.41502375      0.00642791      0.00260795      0.01104535
    2
 MD step:        2850 time   6.8938203305392500     
 H     -0.05242883     -0.07799711     -0.43577405     -0.01840923     -0.01085062     -0.01672419
 H     -0.02481485      0.02294303      0.41652424      0.00720446      0.00286461      0.01393186
    2
 MD step:        2900 time   7.0147645468644999     
 H     -0.05471082     -0.07932579     -0.43798537     -0.01943177     -0.01109758     -0.01975026
 H     -0.02388801      0.02330585      0.41839784      0.00822700      0.00311157      0.01695794
    2
 MD step:        2950 time   7.1357087631897507     
 H     -0.05708684     -0.08069098     -0.44058398     -0.02010249     -0.01144009     -0.02315737
 H     -0.02286714      0.02370517      0.42065873      0.00889772      0.00345408      0.02036504
    2
 MD step:        3000 time   7.2566529795150005     
 H     -0.05957483     -0.08209227     -0.44358064     -0.02079970     -0.01179479     -0.02663986
 H     -0.02173430      0.02414060      0.42331768      0.00959493      0.00380879      0.02384753
    2
 MD step:        3050 time   7.3775971958402504     
 H     -0.06216382     -0.08353643     -0.44701309     -0.02193224     -0.01209454     -0.03009409
 H     -0.02050047      0.02461890      0.42641242      0.01072747      0.00410853      0.02730176
    2
 MD step:        3100 time   7.4985414121655003     
 H     -0.06485201     -0.08502911     -0.45091747     -0.02284260     -0.01253067     -0.03433764
 H     -0.01916743      0.02514572      0.42997908      0.01163783      0.00454466      0.03154531
    2
 MD step:        3150 time   7.6194856284907502     
 H     -0.06766559     -0.08657234     -0.45533021     -0.02355732     -0.01307433     -0.03914034
 H     -0.01770900      0.02572309      0.43405410      0.01235255      0.00508833      0.03634801
    2
 MD step:        3200 time   7.7404298448160000     
 H     -0.07060376     -0.08818274     -0.46036990     -0.02481093     -0.01358609     -0.04419175
 H     -0.01612598      0.02636763      0.43875608      0.01360615      0.00560008      0.04139942
    2
 MD step:        3250 time   7.8613740611412499     
 H     -0.07365678     -0.08988037     -0.46616684     -0.02602709     -0.01442229     -0.05153580
 H     -0.01442812      0.02709940      0.44421531      0.01482232      0.00643628      0.04874347
    2
 MD step:        3300 time   7.9823182774665007     
 H     -0.07685515     -0.09167839     -0.47283919     -0.02681691     -0.01549142     -0.06004596
 H     -0.01258490      0.02793156      0.45054994      0.01561214      0.00750542      0.05725363
    2
 MD step:        3350 time   8.1032624937917497     
 H     -0.08020265     -0.09362364     -0.48071820     -0.02818768     -0.01663835     -0.06960492
 H     -0.01059255      0.02891094      0.45809123      0.01698290      0.00865235      0.06681259
    2
 MD step:        3400 time   8.2242067101170004     
 H     -0.08365925     -0.09574715     -0.48996937     -0.02940533     -0.01853730     -0.08420898
 H     -0.00849110      0.03006860      0.46700468      0.01820056      0.01055130      0.08141665
    2
 MD step:        3450 time   8.3451509264422494     
 H     -0.08724732     -0.09808509     -0.50085548     -0.02962942     -0.02024882     -0.09635436
 H     -0.00625818      0.03144067      0.47755308      0.01842465      0.01226282      0.09356203
    2
 MD step:        3500 time   8.4660951427675002     
 H     -0.09091196     -0.10068893     -0.51365920     -0.03086082     -0.02271609     -0.11458961
 H     -0.00394869      0.03307866      0.49001908      0.01965604      0.01473008      0.11179728
    2
 MD step:        3550 time   8.5870393590927510     
 H     -0.09460375     -0.10353849     -0.52817531     -0.03049771     -0.02445899     -0.12610664
 H     -0.00161206      0.03496236      0.50419748      0.01929294      0.01647298      0.12331431
    2
 MD step:        3600 time   8.7079835754179999     
 H     -0.09837929     -0.10662867     -0.54440663     -0.03158079     -0.02651187     -0.14104938
 H      0.00080833      0.03708667      0.52009108      0.02037602      0.01852587      0.13825706
    2
 MD step:        3650 time   8.8289277917432507     
 H     -0.10221146     -0.10989095     -0.56185242     -0.03229334     -0.02734054     -0.14730527
 H      0.00328534      0.03938309      0.53719916      0.02108858      0.01935453      0.14451295
    2
 MD step:        3700 time   8.9498720080684997     
 H     -0.10621268     -0.11325629     -0.58015293     -0.03357589     -0.02832351     -0.15510190
 H      0.00593142      0.04178257      0.55516195      0.02237113      0.02033750      0.15230958
    2
 MD step:        3750 time   9.0708162243937505     
 H     -0.11036016     -0.11671523     -0.59921810     -0.03515535     -0.02874948     -0.15948460
 H      0.00872375      0.04427565      0.57388940      0.02395059      0.02076348      0.15669228
    2
 MD step:        3800 time   9.1917604407189994     
 H     -0.11463733     -0.12021877     -0.61870478     -0.03539851     -0.02937602     -0.16380973
 H      0.01164577      0.04681333      0.59303837      0.02419376      0.02139001      0.16101742
    2
 MD step:        3850 time   9.3127046570442502     
 H     -0.11897681     -0.12384986     -0.63908206     -0.03627600     -0.03060538     -0.17264961
 H      0.01463009      0.04947856      0.61307793      0.02507125      0.02261938      0.16985730
    2
 MD step:        3900 time   9.4336488733695010     
 H     -0.12329647     -0.12757969     -0.66007755     -0.03509528     -0.03096379     -0.17377654
 H      0.01759460      0.05224252      0.63373571      0.02389053      0.02297779      0.17098423
    2
 MD step:        3950 time   9.5545930896947500     
 H     -0.12758507     -0.13135289     -0.68131988     -0.03606946     -0.03152004     -0.17830441
 H      0.02052805      0.05504986      0.65464033      0.02486471      0.02353404      0.17551211
    2
 MD step:        4000 time   9.6755373060200007     
 H     -0.13198490     -0.13520230     -0.70315917     -0.03670719     -0.03204825     -0.18230001
 H      0.02357273      0.05793341      0.67614191      0.02550244      0.02406224      0.17950770
    2
 MD step:        4050 time   9.7964815223452497     
 H     -0.13650270     -0.13907948     -0.72529276     -0.03776830     -0.03198655     -0.18297259
 H      0.02673539      0.06084473      0.69793779      0.02656355      0.02400054      0.18018028
    2
 MD step:        4100 time   9.9174257386705005     
 H     -0.14101501     -0.14294787     -0.74736538     -0.03685734     -0.03214393     -0.18304847
 H      0.02989254      0.06374726      0.71967269      0.02565260      0.02415793      0.18025617
    2
 MD step:        4150 time   10.038369954995749     
 H     -0.14550123     -0.14688656     -0.76985227     -0.03747830     -0.03301462     -0.18911586
 H      0.03302361      0.06672009      0.74182187      0.02627357      0.02502861      0.18632357
    2
 MD step:        4200 time   10.159314171321000     
 H     -0.15004581     -0.15091532     -0.79295990     -0.03763084     -0.03346795     -0.19209326
 H      0.03621305      0.06978299      0.76459179      0.02642611      0.02548194      0.18930097
    2
 MD step:        4250 time   10.280258387646251     
 H     -0.15465914     -0.15495315     -0.81619300     -0.03870452     -0.03323088     -0.19169803
 H      0.03947123      0.07285495      0.78748718      0.02749979      0.02524488      0.18890574
    2
 MD step:        4300 time   10.401202603971500     
 H     -0.15931396     -0.15895484     -0.83924403     -0.03795463     -0.03305381     -0.18985334
 H      0.04277090      0.07589079      0.81020049      0.02674990      0.02506780      0.18706105
    2
 MD step:        4350 time   10.522146820296751     
 H     -0.16388717     -0.16298145     -0.86236657     -0.03805111     -0.03360942     -0.19336675
 H      0.04598896      0.07895153      0.83298533      0.02684637      0.02562342      0.19057445
    2
 MD step:        4400 time   10.643091036622000     
 H     -0.16854972     -0.16708810     -0.88606990     -0.03894215     -0.03428215     -0.19838117
 H      0.04929637      0.08209232      0.85635094      0.02773741      0.02629614      0.19558887
    2
 MD step:        4450 time   10.764035252947250     
 H     -0.17329965     -0.17127044     -0.91032377     -0.03971599     -0.03487606     -0.20278268
 H      0.05269115      0.08530880      0.88026710      0.02851125      0.02689005      0.19999038
    2
 MD step:        4500 time   10.884979469272501     
 H     -0.17814322     -0.17551927     -0.93507681     -0.04005270     -0.03532078     -0.20582755
 H      0.05617957      0.08859177      0.90468242      0.02884796      0.02733477      0.20303525
    2
 MD step:        4550 time   11.005923685597750     
 H     -0.18291670     -0.17978497     -0.95986255     -0.03898929     -0.03510411     -0.20345013
 H      0.05959790      0.09189161      0.92913045      0.02778454      0.02711811      0.20065782
    2
 MD step:        4600 time   11.126867901923001     
 H     -0.18766738     -0.18400371     -0.98434089     -0.03972514     -0.03468860     -0.20167117
 H      0.06299344      0.09514448      0.95327108      0.02852039      0.02670260      0.19887887
    2
 MD step:        4650 time   11.247812118248250     
 H     -0.19247161     -0.18819024     -1.00867810     -0.03949309     -0.03463761     -0.20113063
 H      0.06644252      0.09836516      0.97727057      0.02828835      0.02665161      0.19833832
    2
 MD step:        4700 time   11.368756334573501     
 H     -0.19723666     -0.19240215     -1.03312886     -0.03952579     -0.03504441     -0.20361163
 H      0.06985241      0.10161120      1.00138362      0.02832104      0.02705841      0.20081933
    2
 MD step:        4750 time   11.489700550898750     
 H     -0.20206804     -0.19666753     -1.05796741     -0.04034620     -0.03548379     -0.20707007
 H      0.07332865      0.10491072      1.02588446      0.02914145      0.02749778      0.20427776
    2
 MD step:        4800 time   11.610644767224001     
 H     -0.20696566     -0.20098482     -1.08318352     -0.04053511     -0.03590522     -0.20978323
 H      0.07687111      0.10826215      1.05076286      0.02933036      0.02791922      0.20699093
    2
 MD step:        4850 time   11.731588983549251     
 H     -0.21187006     -0.20534514     -1.10866387     -0.04069810     -0.03615805     -0.21145737
 H      0.08042036      0.11165661      1.07590550      0.02949335      0.02817205      0.20866506
    2
 MD step:        4900 time   11.852533199874500     
 H     -0.21684258     -0.20972503     -1.13432917     -0.04143421     -0.03624556     -0.21271544
 H      0.08403774      0.11507064      1.10123309      0.03022946      0.02825955      0.20992314
    2
 MD step:        4950 time   11.973477416199751     
 H     -0.22180768     -0.21409918     -1.15995300     -0.04038643     -0.03602241     -0.21034022
 H      0.08764769      0.11847893      1.12651920      0.02918168      0.02803641      0.20754791
    2
 MD step:        5000 time   12.094421632525000     
 H     -0.22665557     -0.21843821     -1.18525085     -0.04020295     -0.03577188     -0.20866864
 H      0.09114043      0.12185210      1.15147934      0.02899820      0.02778587      0.20587633
    2
 MD step:        5050 time   12.215365848850251     
 H     -0.23156275     -0.22275895     -1.21049940     -0.04074291     -0.03570503     -0.20881224
 H      0.09469246      0.12520698      1.17639017      0.02953816      0.02771903      0.20601993
    2
 MD step:        5100 time   12.336310065175500     
 H     -0.23646482     -0.22708468     -1.23577232     -0.04031414     -0.03585814     -0.20928919
 H      0.09823937      0.12856685      1.20132538      0.02910939      0.02787214      0.20649689
    2
 MD step:        5150 time   12.457254281500751     
 H     -0.24135292     -0.23143168     -1.26115703     -0.04073090     -0.03601209     -0.21061531
 H      0.10177233      0.13194798      1.22637237      0.02952615      0.02802609      0.20782300
    2
 MD step:        5200 time   12.578198497826001     
 H     -0.24631850     -0.23579311     -1.28670440     -0.04111948     -0.03609043     -0.21146588
 H      0.10538276      0.13534355      1.25158203      0.02991473      0.02810442      0.20867357
    2
 MD step:        5250 time   12.699142714151250     
 H     -0.25123331     -0.24015075     -1.31217869     -0.04014967     -0.03592758     -0.20953758
 H      0.10894242      0.13873533      1.27671861      0.02894492      0.02794157      0.20674527
    2
 MD step:        5300 time   12.820086930476501     
 H     -0.25609776     -0.24448264     -1.33745118     -0.04053286     -0.03571872     -0.20869308
 H      0.11245172      0.14210136      1.30165338      0.02932811      0.02773271      0.20590077
    2
 MD step:        5350 time   12.941031146801750     
 H     -0.26101746     -0.24879384     -1.36265740     -0.04054541     -0.03559974     -0.20800720
 H      0.11601627      0.14544670      1.32652189      0.02934066      0.02761373      0.20521489
    2
 MD step:        5400 time   13.061975363127001     
 H     -0.26588000     -0.25310222     -1.38778989     -0.04001425     -0.03566211     -0.20784153
 H      0.11952366      0.14878922      1.35131667      0.02880950      0.02767611      0.20504923
    2
 MD step:        5450 time   13.182919579452250     
 H     -0.27075369     -0.25741927     -1.41298427     -0.04069544     -0.03572180     -0.20887207
 H      0.12304220      0.15214041      1.37617333      0.02949069      0.02773579      0.20607976
    2
 MD step:        5500 time   13.303863795777501     
 H     -0.27568433     -0.26174075     -1.43826154     -0.04052704     -0.03571777     -0.20868021
 H      0.12661769      0.15549602      1.40111289      0.02932229      0.02773176      0.20588790
    2
 MD step:        5550 time   13.424808012102751     
 H     -0.28053247     -0.26605238     -1.46339882     -0.03987242     -0.03557457     -0.20718975
 H      0.13011069      0.15884180      1.42591246      0.02866767      0.02758857      0.20439744
    2
 MD step:        5600 time   13.545752228428000     
 H     -0.28539211     -0.27034703     -1.48844854     -0.04051375     -0.03544938     -0.20710115
 H      0.13361517      0.16217059      1.45062446      0.02930900      0.02746337      0.20430885
    2
 MD step:        5650 time   13.666696444753251     
 H     -0.29027961     -0.27462988     -1.51345731     -0.04008682     -0.03539580     -0.20636218
 H      0.13714752      0.16548757      1.47529552      0.02888207      0.02740980      0.20356987
    2
 MD step:        5700 time   13.787640661078500     
 H     -0.29509815     -0.27891211     -1.53839352     -0.03985431     -0.03541409     -0.20623603
 H      0.14061092      0.16880394      1.49989402      0.02864956      0.02742808      0.20344372
    2
 MD step:        5750 time   13.908584877403751     
 H     -0.29996456     -0.28319509     -1.56338201     -0.04054193     -0.03540810     -0.20688889
 H      0.14412218      0.17212107      1.52454479      0.02933718      0.02742210      0.20409659
    2
 MD step:        5800 time   14.029529093729000     
 H     -0.30484017     -0.28747450     -1.58835888     -0.03987951     -0.03534261     -0.20584644