    2
 MD step:           0 time   0.0000000000000000     
 H      0.00000000      0.00000000     -0.37000000     -0.02000886      0.04153739     -0.00810685
 H      0.00000000      0.00000000      0.37000000     -0.00530363     -0.02596910     -0.00741539
    2
 MD step:          50 time  0.12094421632525000     
 H     -0.00242084      0.00502286     -0.37098831     -0.02002891      0.04151831     -0.00824110
 H     -0.00064056     -0.00313997      0.36911098     -0.00528358     -0.02595001     -0.00728115
    2
 MD step:         100 time  0.24188843265050000     
 H     -0.00484520      0.01004252     -0.37199914     -0.02008022      0.04147186     -0.00848937
 H     -0.00127760     -0.00627673      0.36824449     -0.00523228     -0.02590356     -0.00703287
    2
 MD step:         150 time  0.36283264897575002     
 H     -0.00727595      0.01505688     -0.37305163     -0.02014602      0.04141999     -0.00893859
 H     -0.00190824     -0.00940820      0.36741965     -0.00516648     -0.02585170     -0.00658366
    2
 MD step:         200 time  0.48377686530100000     
 H     -0.00971471      0.02006582     -0.37417172     -0.02020828      0.04138681     -0.00961660
 H     -0.00253089     -0.01253424      0.36666242     -0.00510421     -0.02581852     -0.00590564
    2
 MD step:         250 time  0.60472108162625005     
 H     -0.01216152      0.02507148     -0.37538702     -0.02025508      0.04138918     -0.01050775
 H     -0.00314548     -0.01565700      0.36600039     -0.00505741     -0.02582089     -0.00501449
    2
 MD step:         300 time  0.72566529795150003     
 H     -0.01461480      0.03007782     -0.37671832     -0.02028267      0.04143022     -0.01152236
 H     -0.00375360     -0.01878044      0.36545436     -0.00502982     -0.02586192     -0.00399989
    2
 MD step:         350 time  0.84660951427675002     
 H     -0.01707173      0.03508975     -0.37817569     -0.02029313      0.04150347     -0.01256822
 H     -0.00435807     -0.02190949      0.36503441     -0.00501936     -0.02593517     -0.00295402
    2
 MD step:         400 time  0.96755373060200001     
 H     -0.01952884      0.04011179     -0.37975453     -0.02028820      0.04159451     -0.01350800
 H     -0.00496236     -0.02504863      0.36473592     -0.00502429     -0.02602621     -0.00201424
    2
 MD step:         450 time   1.0884979469272500     
 H     -0.02198276      0.04514682     -0.38143609     -0.02026719      0.04169138     -0.01425381
 H     -0.00556983     -0.02820076      0.36454016     -0.00504530     -0.02612309     -0.00126844
    2
 MD step:         500 time   1.2094421632525001     
 H     -0.02443087      0.05019527     -0.38319059     -0.02022682      0.04178044     -0.01471011
 H     -0.00618312     -0.03136631      0.36441734     -0.00508568     -0.02621214     -0.00081213
    2
 MD step:         550 time   1.3303863795777500     
 H     -0.02687162      0.05525480     -0.38498060     -0.02016733      0.04185096     -0.01485086
 H     -0.00680378     -0.03454295      0.36433001     -0.00514516     -0.02628267     -0.00067138
    2
 MD step:         600 time   1.4513305959030001     
 H     -0.02930457      0.06032086     -0.38676771     -0.02009554      0.04188774     -0.01466854
 H     -0.00743223     -0.03772611      0.36423981     -0.00521695     -0.02631944     -0.00085370
    2
 MD step:         650 time   1.5722748122282502     
 H     -0.03173014      0.06538732     -0.38851532     -0.02002534      0.04187627     -0.01420612
 H     -0.00806806     -0.04090968      0.36411009     -0.00528715     -0.02630797     -0.00131612
    2
 MD step:         700 time   1.6932190285535000     
 H     -0.03414934      0.07044769     -0.39019405     -0.01997141      0.04180608     -0.01353060
 H     -0.00871025     -0.04408716      0.36391149     -0.00534109     -0.02623779     -0.00199164
    2
 MD step:         750 time   1.8141632448787501     
 H     -0.03656352      0.07549583     -0.39178266     -0.01994139      0.04167728     -0.01272000
 H     -0.00935747     -0.04725240      0.36362278     -0.00537111     -0.02610898     -0.00280224
    2
 MD step:         800 time   1.9351074612040000     
 H     -0.03897432      0.08052661     -0.39326986     -0.01993256      0.04150489     -0.01186218
 H     -0.01000807     -0.05040029      0.36323265     -0.00537993     -0.02593659     -0.00366007
    2
 MD step:         850 time   2.0560516775292501     
 H     -0.04138365      0.08553642     -0.39465442     -0.01993504      0.04131290     -0.01103389
 H     -0.01066014     -0.05352720      0.36273988     -0.00537746     -0.02574460     -0.00448835
    2
 MD step:         900 time   2.1769958938545000     
 H     -0.04379359      0.09052318     -0.39594344     -0.01994089      0.04112537     -0.01030077
 H     -0.01131161     -0.05663106      0.36215158     -0.00537160     -0.02555707     -0.00522147
    2
 MD step:         950 time   2.2979401101797499     
 H     -0.04620617      0.09548687     -0.39715244     -0.01995212      0.04095979     -0.00972778
 H     -0.01196042     -0.05971186      0.36148325     -0.00536038     -0.02539149     -0.00579447
    2
 MD step:        1000 time   2.4188843265050002     
 H     -0.04862311      0.10042941     -0.39830213     -0.01997877      0.04081779     -0.00934174
 H     -0.01260488     -0.06277150      0.36075562     -0.00533372     -0.02524949     -0.00618050
    2
 MD step:        1050 time   2.5398285428302501     
 H     -0.05104568      0.10535479     -0.39941784     -0.02003282      0.04070286     -0.00918734
 H     -0.01324371     -0.06581399      0.35999400     -0.00527968     -0.02513457     -0.00633490
    2
 MD step:        1100 time   2.6607727591554999     
 H     -0.05347482      0.11026882     -0.40052796     -0.02011387      0.04061479     -0.00925347
 H     -0.01387597     -0.06884512      0.35922679     -0.00519863     -0.02504650     -0.00626878
    2
 MD step:        1150 time   2.7817169754807503     
 H     -0.05591140      0.11517824     -0.40166125     -0.02020943      0.04057391     -0.00955872
 H     -0.01450079     -0.07187165      0.35848276     -0.00510307     -0.02500562     -0.00596353
    2
 MD step:        1200 time   2.9026611918060001     
 H     -0.05835672      0.12009089     -0.40284881     -0.02029939      0.04060280     -0.01009351
 H     -0.01511688     -0.07490140      0.35779299     -0.00501310     -0.02503451     -0.00542874
    2
 MD step:        1250 time   3.0236054081312500     
 H     -0.06081234      0.12501408     -0.40411868     -0.02037363      0.04072413     -0.01086772
 H     -0.01572265     -0.07794170      0.35718554     -0.00493886     -0.02515584     -0.00465453
    2
 MD step:        1300 time   3.1445496244565003     
 H     -0.06328028      0.12995592     -0.40550054     -0.02044377      0.04094799     -0.01191174
 H     -0.01631611     -0.08100064      0.35669007     -0.00486872     -0.02537969     -0.00361051
    2
 MD step:        1350 time   3.2654938407817502     
 H     -0.06576236      0.13492401     -0.40702037     -0.02053703      0.04125082     -0.01320578
 H     -0.01689543     -0.08408583      0.35633258     -0.00477547     -0.02568253     -0.00231646
    2
 MD step:        1400 time   3.3864380571070001     
 H     -0.06826041      0.13992702     -0.40870538     -0.02068409      0.04161164     -0.01476608
 H     -0.01745878     -0.08720595      0.35614026     -0.00462840     -0.02604334     -0.00075617
    2
 MD step:        1450 time   3.5073822734322500     
 H     -0.07077653      0.14497445     -0.41058376     -0.02088853      0.04199373     -0.01650713
 H     -0.01800406     -0.09037048      0.35614132     -0.00442397     -0.02642544      0.00098489
    2
 MD step:        1500 time   3.6283264897575003     
 H     -0.07331389      0.15007627     -0.41268546     -0.02113114      0.04241549     -0.01843663
 H     -0.01852810     -0.09358941      0.35636569     -0.00418136     -0.02684720      0.00291438
    2
 MD step:        1550 time   3.7492707060827501     
 H     -0.07587786      0.15524395     -0.41504746     -0.02138343      0.04292651     -0.02059718
 H     -0.01902554     -0.09687420      0.35685036     -0.00392907     -0.02735821      0.00507494
    2
 MD step:        1600 time   3.8702149224080000     
 H     -0.07847567      0.16048766     -0.41770596     -0.02164974      0.04360710     -0.02315391
 H     -0.01948912     -0.10023500      0.35763154     -0.00366276     -0.02803881      0.00763167
    2
 MD step:        1650 time   3.9911591387332503     
 H     -0.08111645      0.16581899     -0.42070351     -0.02198590      0.04450745     -0.02629690
 H     -0.01990974     -0.10368344      0.35875176     -0.00332659     -0.02893916      0.01077466
    2
 MD step:        1700 time   4.1121033550585002     
 H     -0.08380986      0.17125074     -0.42408460     -0.02245742      0.04553881     -0.02992398
 H     -0.02027773     -0.10723230      0.36025552     -0.00285508     -0.02997051      0.01440173
    2
 MD step:        1750 time   4.2330475713837501     
 H     -0.08656660      0.17680180     -0.42790638     -0.02308929      0.04657787     -0.03381764
 H     -0.02058239     -0.11090047      0.36219998     -0.00222320     -0.03100957      0.01829539
    2
 MD step:        1800 time   4.3539917877090000     
 H     -0.08939971      0.18249908     -0.43224285     -0.02383249      0.04763040     -0.03791036
 H     -0.02081069     -0.11471485      0.36465913     -0.00148000     -0.03206211      0.02238812
    2
 MD step:        1850 time   4.4749360040342498     
 H     -0.09232349      0.18836674     -0.43715710     -0.02463467      0.04902182     -0.04275332
 H     -0.02094830     -0.11869962      0.36769606     -0.00067782     -0.03345353      0.02723108
    2
 MD step:        1900 time   4.5958802203594997     
 H     -0.09535027      0.19441955     -0.44268338     -0.02547512      0.05095699     -0.04858614
 H     -0.02098292     -0.12286953      0.37134500      0.00016262     -0.03538870      0.03306390
    2
 MD step:        1950 time   4.7168244366847505     
 H     -0.09848498      0.20067080     -0.44883686     -0.02629786      0.05288761     -0.05404907
 H     -0.02090962     -0.12723789      0.37562116      0.00098537     -0.03731931      0.03852682
    2
 MD step:        2000 time   4.8377686530100004     
 H     -0.10172173      0.20715106     -0.45564405     -0.02705965      0.05443978     -0.05841182
 H     -0.02073426     -0.13183525      0.38055103      0.00174715     -0.03887148      0.04288958
    2
 MD step:        2050 time   4.9587128693352502     
 H     -0.10503746      0.21387269     -0.46305771     -0.02771562      0.05627703     -0.06308476
 H     -0.02047993     -0.13667398      0.38608736      0.00240312     -0.04070873      0.04756252
    2
 MD step:        2100 time   5.0796570856605001     
 H     -0.10839519      0.22079757     -0.47091374     -0.02796611      0.05823213     -0.06715943
 H     -0.02018361     -0.14171597      0.39206607      0.00265362     -0.04266384      0.05163718
    2
 MD step:        2150 time   5.2006013019857500     
 H     -0.11176632      0.22790461     -0.47911858     -0.02772373      0.05938260     -0.06871012
 H     -0.01987387     -0.14694011      0.39839358      0.00241123     -0.04381430      0.05318788
    2
 MD step:        2200 time   5.3215455183109999     
 H     -0.11512302      0.23515515     -0.48756099     -0.02756361      0.06033021     -0.07013422
 H     -0.01957857     -0.15230775      0.40495867      0.00225112     -0.04476192      0.05461198
    2
 MD step:        2250 time   5.4424897346362506     
 H     -0.11844559      0.24246985     -0.49607374     -0.02752492      0.06073938     -0.07102419
 H     -0.01931740     -0.15773956      0.41159409      0.00221242     -0.04517109      0.05550195
    2
 MD step:        2300 time   5.5634339509615005     
 H     -0.12176439      0.24983268     -0.50469109     -0.02749466      0.06069452     -0.07119704
 H     -0.01906000     -0.16321950      0.41833411      0.00218216     -0.04512622      0.05567479
    2
 MD step:        2350 time   5.6843781672867504     
 H     -0.12511590      0.25719488     -0.51338820     -0.02787991      0.06124317     -0.07292557
 H     -0.01876989     -0.16869880      0.42515390      0.00256741     -0.04567487      0.05740333
    2
 MD step:        2400 time   5.8053223836120003     
 H     -0.12852268      0.26457676     -0.52222515     -0.02837786      0.06102907     -0.07328991
 H     -0.01842451     -0.17419778      0.43211352      0.00306537     -0.04546077      0.05776767
    2
 MD step:        2450 time   5.9262665999372501     
 H     -0.13197687      0.27202927     -0.53124490     -0.02878361      0.06189324     -0.07533902
 H     -0.01803172     -0.17976740      0.43925594      0.00347111     -0.04632495      0.05981677
    2
 MD step:        2500 time   6.0472108162625000     
 H     -0.13543985      0.27953146     -0.54033397     -0.02849101      0.06241407     -0.07553326
 H     -0.01763014     -0.18538669      0.44646769      0.00317851     -0.04684577      0.06001101
    2
 MD step:        2550 time   6.1681550325877499     
 H     -0.13888593      0.28712321     -0.54953901     -0.02829475      0.06296021     -0.07607006
 H     -0.01724546     -0.19109555      0.45379540      0.00298226     -0.04739191      0.06054782
    2
 MD step:        2600 time   6.2890992489130007     
 H     -0.14229006      0.29471818     -0.55869643     -0.02821177      0.06268159     -0.07574133
 H     -0.01690273     -0.19680762      0.46107550      0.00289928     -0.04711329      0.06021909
    2
 MD step:        2650 time   6.4100434652382505     
 H     -0.14570937      0.30232180     -0.56791290     -0.02836525      0.06278096     -0.07633693
 H     -0.01654482     -0.20252835      0.46841464      0.00305276     -0.04721267      0.06081469
    2
 MD step:        2700 time   6.5309876815635004     
 H     -0.14916337      0.30985928     -0.57708559     -0.02864991      0.06229751     -0.07582488
 H     -0.01615222     -0.20818293      0.47571000      0.00333741     -0.04672922      0.06030263
    2
 MD step:        2750 time   6.6519318978887503     
 H     -0.15264328      0.31743114     -0.58633544     -0.02885728      0.06260640     -0.07649945
 H     -0.01573370     -0.21387190      0.48308253      0.00354479     -0.04703811      0.06097721
    2
 MD step:        2800 time   6.7728761142140002     
 H     -0.15609535      0.32498589     -0.59548822     -0.02828330      0.06242984     -0.07525570
 H     -0.01534304     -0.21954375      0.49035798      0.00297080     -0.04686154      0.05973346
    2
 MD step:        2850 time   6.8938203305392500     
 H     -0.15951440      0.33254484     -0.60460540     -0.02815733      0.06255491     -0.07532942
 H     -0.01498539     -0.22521981      0.49759784      0.00284484     -0.04698662      0.05980717
    2
 MD step:        2900 time   7.0147645468644999     
 H     -0.16291254      0.34005216     -0.61363297     -0.02819789      0.06140487     -0.07383711
 H     -0.01464865     -0.23084423      0.50474809      0.00288540     -0.04583657      0.05831487
    2
 MD step:        2950 time   7.1357087631897507     
 H     -0.16633416      0.34747350     -0.62256321     -0.02838946      0.06152163     -0.07421669
 H     -0.01428843     -0.23638267      0.51180100      0.00307697     -0.04595333      0.05869444
    2
 MD step:        3000 time   7.2566529795150005     
 H     -0.16977399      0.35487747     -0.63147895     -0.02825350      0.06082240     -0.07265528
 H     -0.01391000     -0.24190375      0.51883941      0.00294101     -0.04525411      0.05713304
    2
 MD step:        3050 time   7.3775971958402504     
 H     -0.17315608      0.36221656     -0.64019062     -0.02786171      0.06060462     -0.07182467
 H     -0.01358931     -0.24735995      0.52567376      0.00254922     -0.04503633      0.05630242
    2
 MD step:        3100 time   7.4985414121655003     
 H     -0.17651326      0.36953962     -0.64885156     -0.02759614      0.06031266     -0.07111892
 H     -0.01329353     -0.25280011      0.53245737      0.00228365     -0.04474437      0.05559667
    2
 MD step:        3150 time   7.6194856284907502     
 H     -0.17985726      0.37673674     -0.65732710     -0.02773071      0.05882901     -0.06913063
 H     -0.01301093     -0.25811434      0.53905558      0.00241821     -0.04326071      0.05360839
    2
 MD step:        3200 time   7.7404298448160000     
 H     -0.18321126      0.38385721     -0.66568823     -0.02778879      0.05891371     -0.06924337
 H     -0.01271833     -0.26335191      0.54553938      0.00247630     -0.04334542      0.05372113
    2
 MD step:        3250 time   7.8613740611412499     
 H     -0.18655297      0.39093906     -0.67395487     -0.02725100      0.05813463     -0.06710513
 H     -0.01243801     -0.26855086      0.55192870      0.00193851     -0.04256633      0.05158288
    2
 MD step:        3300 time   7.9823182774665007     
 H     -0.18982126      0.39791498     -0.68196536     -0.02698736      0.05729316     -0.06570305
 H     -0.01223113     -0.27364389      0.55806186      0.00167487     -0.04172486      0.05018080
    2
 MD step:        3350 time   8.1032624937917497     
 H     -0.19308394      0.40483070     -0.68989388     -0.02698608      0.05692517     -0.06527736
 H     -0.01202985     -0.27867671      0.56411306      0.00167359     -0.04135687      0.04975511
    2
 MD step:        3400 time   8.2242067101170004     
 H     -0.19635336      0.41161542     -0.69764456     -0.02692121      0.05537159     -0.06271410
 H     -0.01182182     -0.28357854      0.56998641      0.00160871     -0.03980329      0.04719185
    2
 MD step:        3450 time   8.3451509264422494     
 H     -0.19958228      0.41829611     -0.70516308     -0.02659514      0.05517497     -0.06194201
 H     -0.01165430     -0.28837633      0.57562761      0.00128265     -0.03960668      0.04641976
    2
 MD step:        3500 time   8.4660951427675002     
 H     -0.20277881      0.42494717     -0.71259312     -0.02615975      0.05465384     -0.06063046
 H     -0.01151918     -0.29314449      0.58118032      0.00084726     -0.03908555      0.04510821
    2
 MD step:        3550 time   8.5870393590927510     
 H     -0.20593331      0.43145087     -0.71977806     -0.02611479      0.05287084     -0.05818678
 H     -0.01142607     -0.29776530      0.58648794      0.00080230     -0.03730255      0.04266453
    2
 MD step:        3600 time   8.7079835754179999     
 H     -0.20908784      0.43781871     -0.72676174     -0.02606913      0.05262425     -0.05765336
 H     -0.01133294     -0.30225025      0.59159429      0.00075663     -0.03705595      0.04213111
    2
 MD step:        3650 time   8.8289277917432507     
 H     -0.21223256      0.44414736     -0.73366247     -0.02572408      0.05188881     -0.05595875
 H     -0.01124963     -0.30669599      0.59661769      0.00041158     -0.03632051      0.04043650
    2
 MD step:        3700 time   8.9498720080684997     
 H     -0.21529823      0.45034502     -0.74027128     -0.02517721      0.05050845     -0.05352338
 H     -0.01124536     -0.31101076      0.60134917     -0.00013529     -0.03494016      0.03800113
    2
 MD step:        3750 time   9.0708162243937505     
 H     -0.21834756      0.45640448     -0.74668175     -0.02522358      0.04995159     -0.05280186
 H     -0.01125743     -0.31518733      0.60588232     -0.00008892     -0.03438329      0.03727961
    2
 MD step:        3800 time   9.1917604407189994     
 H     -0.22140420      0.46240292     -0.75301550     -0.02523886      0.04897664     -0.05136179
 H     -0.01126218     -0.31930288      0.61033875     -0.00007363     -0.03340834      0.03583954
    2
 MD step:        3850 time   9.3127046570442502     
 H     -0.22440793      0.46825069     -0.75904603     -0.02444871      0.04781673     -0.04864481
 H     -0.01131986     -0.32326775      0.61449194     -0.00086378     -0.03224844      0.03312256
    2
 MD step:        3900 time   9.4336488733695010     
 H     -0.22735647      0.47398232     -0.76485728     -0.02435011      0.04710737     -0.04764686
 H     -0.01143271     -0.32711649      0.61842587     -0.00096238     -0.03153907      0.03212461
    2
 MD step:        3950 time   9.5545930896947500     
 H     -0.23029800      0.47964505     -0.77057519     -0.02435319      0.04623255     -0.04656282
 H     -0.01155258     -0.33089632      0.62226645     -0.00095931     -0.03066425      0.03104057
    2
 MD step:        4000 time   9.6755373060200007     
 H     -0.23322622      0.48513036     -0.77602233     -0.02388976      0.04469373     -0.04358680
 H     -0.01168576     -0.33449872      0.62583627     -0.00142274     -0.02912543      0.02806455
    2
 MD step:        4050 time   9.7964815223452497     
 H     -0.23608678      0.49049732     -0.78121012     -0.02355130      0.04409042     -0.04242800
 H     -0.01188660     -0.33798280      0.62914673     -0.00176120     -0.02852212      0.02690575
    2
 MD step:        4100 time   9.9174257386705005     
 H     -0.23892224      0.49580199     -0.78629064     -0.02333410      0.04350127     -0.04146629
 H     -0.01211254     -0.34140457      0.63234993     -0.00197840     -0.02793297      0.02594404
    2
 MD step:        4150 time   10.038369954995749     
 H     -0.24174457      0.50095050     -0.79115751     -0.02325980      0.04159102     -0.03872665
 H     -0.01235161     -0.34467019      0.63533947     -0.00205269     -0.02602273      0.02320440
    2
 MD step:        4200 time   10.159314171321000     
 H     -0.24452280      0.50592808     -0.79571528     -0.02275314      0.04090538     -0.03707637
 H     -0.01263478     -0.34776487      0.63801992     -0.00255936     -0.02533708      0.02155412
    2
 MD step:        4250 time   10.280258387646251     
 H     -0.24726415      0.51084904     -0.80015260     -0.02251572      0.04045498     -0.03619944
 H     -0.01295483     -0.35080293      0.64057990     -0.00279678     -0.02488668      0.02067719
    2
 MD step:        4300 time   10.401202603971500     
 H     -0.24997162      0.51566711     -0.80442574     -0.02235832      0.03889431     -0.03412646
 H     -0.01330876     -0.35373811      0.64297572     -0.00295417     -0.02332601      0.01860421
    2
 MD step:        4350 time   10.522146820296751     
 H     -0.25266080      0.52026654     -0.80838077     -0.02200318      0.03753522     -0.03164583
 H     -0.01368097     -0.35645464      0.64505343     -0.00330932     -0.02196693      0.01612358
    2
 MD step:        4400 time   10.643091036622000     
 H     -0.25530550      0.52478741     -0.81216477     -0.02178154      0.03719595     -0.03094120
 H     -0.01409768     -0.35909262      0.64696010     -0.00353096     -0.02162765      0.01541895
    2
 MD step:        4450 time   10.764035252947250     
 H     -0.25791562      0.52924853     -0.81583139     -0.02139480      0.03635511     -0.02950053
 H     -0.01454896     -0.36167084      0.64874939     -0.00391769     -0.02078681      0.01397828
    2
 MD step:        4500 time   10.884979469272501     
 H     -0.26050056      0.53351859     -0.81923508     -0.02129970      0.03433415     -0.02669519
 H     -0.01502542     -0.36405801      0.65027575     -0.00401279     -0.01876585      0.01117294
    2
 MD step:        4550 time   11.005923685597750     
 H     -0.26304949      0.53763199     -0.82236961     -0.02091770      0.03384658     -0.02550667
 H     -0.01553789     -0.36628851      0.65153296     -0.00439479     -0.01827829      0.00998442
    2
 MD step:        4600 time   11.126867901923001     
 H     -0.26556770      0.54170185     -0.82540882     -0.02063916      0.03340445     -0.02459252
 H     -0.01608107     -0.36847548      0.65269484     -0.00467333     -0.01783615      0.00907027
    2
 MD step:        4650 time   11.247812118248250     
 H     -0.26804521      0.54566046     -0.82827026     -0.02044141      0.03174560     -0.02242452
 H     -0.01666496     -0.37055118      0.65367896     -0.00487108     -0.01617731      0.00690227
    2
 MD step:        4700 time   11.368756334573501     
 H     -0.27050304      0.54939592     -0.83081668     -0.02010097      0.03040647     -0.02006141
 H     -0.01726854     -0.37240375      0.65434805     -0.00521152     -0.01483817      0.00453916
    2
 MD step:        4750 time   11.489700550898750     
 H     -0.27291844      0.55305706     -0.83320491     -0.01989331      0.03010903     -0.01944949
 H     -0.01791454     -0.37418200      0.65485896     -0.00541918     -0.01454073      0.00392724
    2
 MD step:        4800 time   11.610644767224001     
 H     -0.27530216      0.55666526     -0.83549139     -0.01953382      0.02935126     -0.01818458
 H     -0.01859222     -0.37590731      0.65526811     -0.00577868     -0.01378296      0.00266233
    2
 MD step:        4850 time   11.731588983549251     
 H     -0.27766172      0.56009009     -0.83753344     -0.01942924      0.02730901     -0.01542124
 H     -0.01929406     -0.37744923      0.65543283     -0.00588325     -0.01174071     -0.00010101
    2
 MD step:        4900 time   11.852533199874500     
 H     -0.27998034      0.56334557     -0.83929071     -0.01897635      0.02671301     -0.01403956
 H     -0.02003684     -0.37882182      0.65531277     -0.00633615     -0.01114472     -0.00148269
    2
 MD step:        4950 time   11.973477416199751     
 H     -0.28226643      0.56655491     -0.84095248     -0.01877126      0.02634604     -0.01335437
 H     -0.02081214     -0.38014827      0.65509722     -0.00654123     -0.01077775     -0.00216788
    2
 MD step:        5000 time   12.094421632525000     
 H     -0.28452214      0.56967608     -0.84248159     -0.01862161      0.02492884     -0.01159073
 H     -0.02161783     -0.38138654      0.65474900     -0.00669088     -0.00936054     -0.00393151
    2
 MD step:        5050 time   12.215365848850251     
 H     -0.28675722      0.57257666     -0.84370512     -0.01820322      0.02336396     -0.00889419
 H     -0.02244415     -0.38240423      0.65409521     -0.00710927     -0.00779566     -0.00662805
    2
 MD step:        5100 time   12.336310065175500     
 H     -0.28893561      0.57537554     -0.84472394     -0.01792710      0.02293643     -0.00810522
 H     -0.02332716     -0.38332021      0.65323670     -0.00738540     -0.00736813     -0.00741703
    2
 MD step:        5150 time   12.457254281500751     
 H     -0.29109102      0.57812669     -0.84566373     -0.01771112      0.02243913     -0.00733868
 H     -0.02423315     -0.38418847      0.65229917     -0.00760137     -0.00687083     -0.00818357
    2
 MD step:        5200 time   12.578198497826001     
 H     -0.29323200      0.58073345     -0.84642200     -0.01761759      0.02054552     -0.00483826
 H     -0.02515358     -0.38491233      0.65118011     -0.00769491     -0.00497723     -0.01068398
    2
 MD step:        5250 time   12.699142714151250     
 H     -0.29532120      0.58314792     -0.84686022     -0.01697789      0.01958491     -0.00282300
 H     -0.02612577     -0.38544390      0.64974101     -0.00833460     -0.00401661     -0.01269925
    2
 MD step:        5300 time   12.820086930476501     
 H     -0.29736654      0.58548499     -0.84715949     -0.01685008      0.01912924     -0.00218360
 H     -0.02714183     -0.38589808      0.64816295     -0.00846241     -0.00356094     -0.01333865
    2
 MD step:        5350 time   12.941031146801750     
 H     -0.29939723      0.58775971     -0.84737664     -0.01679328      0.01818279     -0.00110035
 H     -0.02817254     -0.38628990      0.64650277     -0.00851921     -0.00261449     -0.01442190
    2
 MD step:        5400 time   13.061975363127001     
 H     -0.30140995      0.58984401     -0.84733414     -0.01630449      0.01646223      0.00180822
 H     -0.02922122     -0.38649131      0.64458294     -0.00900800     -0.00089394     -0.01733047
    2
 MD step:        5450 time   13.182919579452250     
 H     -0.30334599      0.59178213     -0.84701652     -0.01587643      0.01563236      0.00317476
 H     -0.03034658     -0.38654653      0.64238800     -0.00943606     -0.00006406     -0.01869701
    2
 MD step:        5500 time   13.303863795777501     
 H     -0.30526175      0.59364727     -0.84659891     -0.01579295      0.01524160      0.00368077
 H     -0.03149222     -0.38652878      0.64009306     -0.00951955      0.00032669     -0.01920302
    2
 MD step:        5550 time   13.424808012102751     
 H     -0.30717338      0.59541553     -0.84606803     -0.01573803      0.01376432      0.00557714
 H     -0.03264199     -0.38641414      0.63768485     -0.00957447      0.00180398     -0.02109939
    2
 MD step:        5600 time   13.545752228428000     
 H     -0.30902791      0.59699135     -0.84521927     -0.01493516      0.01243391      0.00816327
 H     -0.03384886     -0.38610706      0.63495877     -0.01037734      0.00313438     -0.02368552
    2
 MD step:        5650 time   13.666696444753251     
 H     -0.31082238      0.59843751     -0.84416012     -0.01480642      0.01161283      0.00917322
 H     -0.03511579     -0.38567033      0.63202230     -0.01050607      0.00395547     -0.02469546
    2
 MD step:        5700 time   13.787640661078500     
 H     -0.31261034      0.59981841     -0.84302352     -0.01480340      0.01103031      0.00979511
 H     -0.03638922     -0.38516834      0.62900836     -0.01050909      0.00453799     -0.02531736
    2
 MD step:        5750 time   13.908584877403751     
 H     -0.31438432      0.60105294     -0.84168936     -0.01431819      0.00940736      0.01249668
 H     -0.03767665     -0.38451997      0.62579688     -0.01099430      0.00616094     -0.02801892
    2
 MD step:        5800 time   14.029529093729000     
 H     -0.31606991      0.60211322     -0.84004302     -0.01374436      0.00814610      0.01445097