    2
 MD step:           0 time   0.0000000000000000     
 H      0.00000000      0.00000000     -0.37000000     -0.01136159     -0.01944153      0.02699969
 H      0.00000000      0.00000000      0.37000000      0.01177090      0.01345147      0.00807907
    2
 MD step:          50 time  0.12094421632525000     
 H     -0.00137666     -0.00235139     -0.36676303     -0.01144866     -0.01944299      0.02632452
 H      0.00142616      0.00162693      0.37100560      0.01185797      0.01345292      0.00875425
    2
 MD step:         100 time  0.24188843265050000     
 H     -0.00277153     -0.00470318     -0.36363287     -0.01154774     -0.01944743      0.02560249
 H      0.00287054      0.00325425      0.37211802      0.01195704      0.01345737      0.00947628
    2
 MD step:         150 time  0.36283264897575002     
 H     -0.00417043     -0.00705561     -0.36056556     -0.01167043     -0.01945474      0.02505318
 H      0.00431894      0.00488222      0.37329328      0.01207974      0.01346468      0.01002558
    2
 MD step:         200 time  0.48377686530100000     
 H     -0.00558559     -0.00940936     -0.35758151     -0.01160862     -0.01946915      0.02425394
 H      0.00578361      0.00651151      0.37455180      0.01201793      0.01347909      0.01082483
    2
 MD step:         250 time  0.60472108162625005     
 H     -0.00698039     -0.01176503     -0.35469565     -0.01153034     -0.01948521      0.02355205
 H      0.00722791      0.00814272      0.37590852      0.01193965      0.01349515      0.01152671
    2
 MD step:         300 time  0.72566529795150003     
 H     -0.00837136     -0.01412317     -0.35190966     -0.01145016     -0.01951333      0.02233464
 H      0.00866838      0.00977639      0.37736510      0.01185947      0.01352327      0.01274413
    2
 MD step:         350 time  0.84660951427675002     
 H     -0.00975620     -0.01648503     -0.34927752     -0.01145909     -0.01954138      0.02137165
 H      0.01010272      0.01141378      0.37897554      0.01186840      0.01355132      0.01370711
    2
 MD step:         400 time  0.96755373060200001     
 H     -0.01115170     -0.01885066     -0.34676064     -0.01167810     -0.01958146      0.02013626
 H      0.01154772      0.01305495      0.38070123      0.01208741      0.01359140      0.01494250
    2
 MD step:         450 time   1.0884979469272500     
 H     -0.01257045     -0.02122153     -0.34438700     -0.01170457     -0.01962260      0.01922582
 H      0.01301598      0.01470136      0.38257016      0.01211388      0.01363254      0.01585295
    2
 MD step:         500 time   1.2094421632525001     
 H     -0.01399428     -0.02359742     -0.34211329     -0.01188359     -0.01966790      0.01836771
 H      0.01448932      0.01635279      0.38453903      0.01229290      0.01367783      0.01671106
    2
 MD step:         550 time   1.3303863795777500     
 H     -0.01542413     -0.02597958     -0.33995768     -0.01170714     -0.01972525      0.01723981
 H      0.01596867      0.01801048      0.38662600      0.01211645      0.01373518      0.01783896
    2
 MD step:         600 time   1.4513305959030001     
 H     -0.01683869     -0.02836820     -0.33792360     -0.01170718     -0.01977350      0.01643682
 H      0.01743273      0.01967464      0.38883449      0.01211649      0.01378344      0.01864194
    2
 MD step:         650 time   1.5722748122282502     
 H     -0.01825423     -0.03076390     -0.33602058     -0.01172703     -0.01984483      0.01499136
 H      0.01889777      0.02134588      0.39117404      0.01213633      0.01385477      0.02008740
    2
 MD step:         700 time   1.6932190285535000     
 H     -0.01967611     -0.03316719     -0.33425641     -0.01178894     -0.01989527      0.01423955
 H      0.02036916      0.02302470      0.39365245      0.01219824      0.01390521      0.02083922
    2
 MD step:         750 time   1.8141632448787501     
 H     -0.02112048     -0.03557746     -0.33259990     -0.01209792     -0.01996377      0.01317151
 H      0.02186303      0.02471051      0.39623851      0.01250723      0.01397371      0.02190725
    2
 MD step:         800 time   1.9351074612040000     
 H     -0.02258042     -0.03799531     -0.33104551     -0.01203219     -0.02001635      0.01257079
 H      0.02337247      0.02640389      0.39892670      0.01244150      0.01402629      0.02250797
    2
 MD step:         850 time   2.0560516775292501     
 H     -0.02404581     -0.04041906     -0.32955532     -0.01216441     -0.02006689      0.01203754
 H      0.02488737      0.02810318      0.40167908      0.01257371      0.01407683      0.02304123
    2
 MD step:         900 time   2.1769958938545000     
 H     -0.02550424     -0.04284976     -0.32815275     -0.01197323     -0.02012462      0.01119371
 H      0.02639530      0.02980942      0.40451908      0.01238253      0.01413456      0.02388506
    2
 MD step:         950 time   2.2979401101797499     
 H     -0.02695255     -0.04528532     -0.32681758     -0.01198191     -0.02015450      0.01081513
 H      0.02789312      0.03152051      0.40742648      0.01239121      0.01416444      0.02426363
    2
 MD step:        1000 time   2.4188843265050002     
 H     -0.02840831     -0.04772625     -0.32556832     -0.01210676     -0.02020601      0.00993027
 H      0.02939838      0.03323699      0.41041980      0.01251607      0.01421595      0.02514849
    2
 MD step:        1050 time   2.5398285428302501     
 H     -0.02987381     -0.05017055     -0.32437307     -0.01215197     -0.02021443      0.00982166
 H      0.03091339      0.03495682      0.41346713      0.01256128      0.01422437      0.02525711
    2
 MD step:        1100 time   2.6607727591554999     
 H     -0.03136220     -0.05261660     -0.32320401     -0.01241140     -0.02023404      0.00955318
 H      0.03245127      0.03667841      0.41654064      0.01282071      0.01424398      0.02552559
    2
 MD step:        1150 time   2.7817169754807503     
 H     -0.03285166     -0.05506366     -0.32204859     -0.01223162     -0.02022751      0.00958150
 H      0.03399024      0.03840100      0.41962779      0.01264093      0.01423745      0.02549726
    2
 MD step:        1200 time   2.9026611918060001     
 H     -0.03433351     -0.05750833     -0.32087406     -0.01223746     -0.02020196      0.00978310
 H      0.03552159      0.04012121      0.42269584      0.01264677      0.01421190      0.02529567
    2
 MD step:        1250 time   3.0236054081312500     
 H     -0.03580131     -0.05995112     -0.31970884     -0.01206202     -0.02018800      0.00952825
 H      0.03703890      0.04183954      0.42577319      0.01247133      0.01419794      0.02555051
    2
 MD step:        1300 time   3.1445496244565003     
 H     -0.03725707     -0.06238869     -0.31853202     -0.01202627     -0.02012084      0.00991171
 H      0.03854416      0.04355264      0.42883894      0.01243558      0.01413078      0.02516705
    2
 MD step:        1350 time   3.2654938407817502     
 H     -0.03872211     -0.06481974     -0.31733908     -0.01221212     -0.02007831      0.00985899
 H      0.04005870      0.04525923      0.43188858      0.01262142      0.01408825      0.02521978
    2
 MD step:        1400 time   3.3864380571070001     
 H     -0.04019507     -0.06724264     -0.31611059     -0.01212599     -0.01998115      0.01051194
 H      0.04158116      0.04695767      0.43490266      0.01253530      0.01399109      0.02456683
    2
 MD step:        1450 time   3.5073822734322500     
 H     -0.04166994     -0.06965303     -0.31479975     -0.01225620     -0.01987925      0.01116727
 H      0.04310553      0.04864359      0.43783439      0.01266551      0.01388918      0.02391150
    2
 MD step:        1500 time   3.6283264897575003     
 H     -0.04313625     -0.07205115     -0.31341620     -0.01195101     -0.01977112      0.01170907
 H      0.04462135      0.05031725      0.44069342      0.01236032      0.01378106      0.02336969
    2
 MD step:        1550 time   3.7492707060827501     
 H     -0.04457154     -0.07443321     -0.31194791     -0.01180337     -0.01961419      0.01262152
 H      0.04610614      0.05197485      0.44346770      0.01221267      0.01362413      0.02245725
    2
 MD step:        1600 time   3.8702149224080000     
 H     -0.04599075     -0.07679760     -0.31039560     -0.01169063     -0.01948704      0.01296434
 H      0.04757486      0.05361477      0.44615796      0.01209993      0.01349698      0.02211442
    2
 MD step:        1650 time   3.9911591387332503     
 H     -0.04740071     -0.07914429     -0.30878257     -0.01159754     -0.01930356      0.01387227
 H      0.04903433      0.05523700      0.44878751      0.01200684      0.01331350      0.02120650
    2
 MD step:        1700 time   4.1121033550585002     
 H     -0.04880553     -0.08146757     -0.30704971     -0.01170366     -0.01912043      0.01472422
 H      0.05048865      0.05683581      0.45129723      0.01211297      0.01313037      0.02035455
    2
 MD step:        1750 time   4.2330475713837501     
 H     -0.05022088     -0.08376884     -0.30521128     -0.01158214     -0.01892485      0.01574904
 H      0.05195350      0.05841262      0.45370137      0.01199145      0.01293478      0.01932973
    2
 MD step:        1800 time   4.3539917877090000     
 H     -0.05160520     -0.08604384     -0.30323402     -0.01137885     -0.01869080      0.01699000
 H      0.05338732      0.05996316      0.45596668      0.01178816      0.01270074      0.01808877
    2
 MD step:        1850 time   4.4749360040342498     
 H     -0.05297051     -0.08829043     -0.30110951     -0.01113594     -0.01846905      0.01799783
 H      0.05480214      0.06148529      0.45808475      0.01154525      0.01247899      0.01708094
    2
 MD step:        1900 time   4.5958802203594997     
 H     -0.05429897     -0.09051081     -0.29888830     -0.01086672     -0.01823434      0.01887268
 H      0.05618010      0.06298120      0.46010611      0.01127603      0.01224428      0.01620608
    2
 MD step:        1950 time   4.7168244366847505     
 H     -0.05560253     -0.09269911     -0.29652791     -0.01073462     -0.01796580      0.02001776
 H      0.05753316      0.06444504      0.46198829      0.01114393      0.01197573      0.01506100
    2
 MD step:        2000 time   4.8377686530100004     
 H     -0.05690657     -0.09485814     -0.29406215     -0.01079268     -0.01773106      0.02085684
 H      0.05888671      0.06587961      0.46376511      0.01120199      0.01174100      0.01422193
    2
 MD step:        2050 time   4.9587128693352502     
 H     -0.05819638     -0.09698489     -0.29145551     -0.01056048     -0.01743750      0.02223900
 H      0.06022602      0.06728189      0.46540104      0.01096979      0.01144744      0.01283977
    2
 MD step:        2100 time   5.0796570856605001     
 H     -0.05947435     -0.09907676     -0.28868685     -0.01053173     -0.01716082      0.02351546
 H      0.06155349      0.06864930      0.46687496      0.01094103      0.01117075      0.01156331
    2
 MD step:        2150 time   5.2006013019857500     
 H     -0.06072260     -0.10113645     -0.28578177     -0.01010019     -0.01689429      0.02451264
 H      0.06285124      0.06998453      0.46821245      0.01050950      0.01090423      0.01056612
    2
 MD step:        2200 time   5.3215455183109999     
 H     -0.06192794     -0.10316096     -0.28273896     -0.00984591     -0.01658218      0.02581802
 H      0.06410609      0.07128457      0.46941222      0.01025522      0.01059212      0.00926074
    2
 MD step:        2250 time   5.4424897346362506     
 H     -0.06310827     -0.10515116     -0.27957336     -0.00971121     -0.01633505      0.02645139
 H      0.06533592      0.07255031      0.47048919      0.01012052      0.01034498      0.00862738
    2
 MD step:        2300 time   5.5634339509615005     
 H     -0.06427538     -0.10710975     -0.27631424     -0.00954786     -0.01603739      0.02757747
 H      0.06655254      0.07378444      0.47147264      0.00995717      0.01004733      0.00750130
    2
 MD step:        2350 time   5.6843781672867504     
 H     -0.06542825     -0.10903212     -0.27291409     -0.00958998     -0.01576165      0.02859113
 H      0.06775491      0.07498234      0.47231506      0.00999929      0.00977159      0.00648763
    2
 MD step:        2400 time   5.8053223836120003     
 H     -0.06658339     -0.11092307     -0.26939637     -0.00939274     -0.01550215      0.02960253
 H      0.06895955      0.07614883      0.47303992      0.00980205      0.00951208      0.00547624
    2
 MD step:        2450 time   5.9262665999372501     
 H     -0.06769917     -0.11278112     -0.26575223     -0.00912647     -0.01521957      0.03070207
 H      0.07012484      0.07728242      0.47363835      0.00953578      0.00922951      0.00437669
    2
 MD step:        2500 time   6.0472108162625000     
 H     -0.06879021     -0.11460633     -0.26198274     -0.00887790     -0.01498128      0.03145529
 H      0.07126538      0.07838316      0.47411144      0.00928721      0.00899122      0.00362348
    2
 MD step:        2550 time   6.1681550325877499     
 H     -0.06984976     -0.11640553     -0.25815375     -0.00866418     -0.01475623      0.03200510
 H      0.07237443      0.07945790      0.47452502      0.00907349      0.00876617      0.00307367
    2
 MD step:        2600 time   6.2890992489130007     
 H     -0.07088892     -0.11817459     -0.25423036     -0.00858678     -0.01452086      0.03271423
 H      0.07346310      0.08050249      0.47484420      0.00899609      0.00853079      0.00236453
    2
 MD step:        2650 time   6.4100434652382505     
 H     -0.07193730     -0.11992087     -0.25025466     -0.00868307     -0.01435127      0.03312528
 H      0.07456098      0.08152432      0.47511108      0.00909238      0.00836120      0.00195349
    2
 MD step:        2700 time   6.5309876815635004     
 H     -0.07297371     -0.12164359     -0.24620041     -0.00851456     -0.01414417      0.03388121
 H      0.07564689      0.08252257      0.47529940      0.00892387      0.00815410      0.00119756
    2
 MD step:        2750 time   6.6519318978887503     
 H     -0.07400751     -0.12334427     -0.24206550     -0.00850894     -0.01399411      0.03441889
 H      0.07673020      0.08349879      0.47540707      0.00891825      0.00800404      0.00065988
    2
 MD step:        2800 time   6.7728761142140002     
 H     -0.07501651     -0.12502977     -0.23789202     -0.00821354     -0.01387391      0.03462410
 H      0.07778870      0.08445982      0.47547616      0.00862285      0.00788385      0.00045466
    2
 MD step:        2850 time   6.8938203305392500     
 H     -0.07600309     -0.12669870     -0.23367522     -0.00811338     -0.01374566      0.03497662
 H      0.07882478      0.08540429      0.47550193      0.00852269      0.00775560      0.00010215
    2
 MD step:        2900 time   7.0147645468644999     
 H     -0.07698750     -0.12835971     -0.22946742     -0.00818159     -0.01371908      0.03466132
 H      0.07985870      0.08634083      0.47553671      0.00859090      0.00772902      0.00041745
    2
 MD step:        2950 time   7.1357087631897507     
 H     -0.07797443     -0.13001354     -0.22525957     -0.00817220     -0.01364106      0.03487239
 H      0.08089513      0.08727020      0.47557144      0.00858151      0.00765100      0.00020637
    2
 MD step:        3000 time   7.2566529795150005     
 H     -0.07898239     -0.13166395     -0.22105266     -0.00846053     -0.01365877      0.03470540
 H      0.08195259      0.08819615      0.47560710      0.00886984      0.00766871      0.00037337
    2
 MD step:        3050 time   7.3775971958402504     
 H     -0.07999681     -0.13331645     -0.21685790     -0.00832631     -0.01366929      0.03465249
 H      0.08301652      0.08912419      0.47565491      0.00873562      0.00767923      0.00042627
    2
 MD step:        3100 time   7.4985414121655003     
 H     -0.08101053     -0.13497121     -0.21266824     -0.00841148     -0.01371209      0.03454649
 H      0.08407974      0.09005448      0.47570782      0.00882079      0.00772203      0.00053228
    2
 MD step:        3150 time   7.6194856284907502     
 H     -0.08202268     -0.13663741     -0.20853383     -0.00835443     -0.01383944      0.03383749
 H      0.08514139      0.09099622      0.47581599      0.00876374      0.00784938      0.00124127
    2
 MD step:        3200 time   7.7404298448160000     
 H     -0.08303633     -0.13831557     -0.20445733     -0.00843720     -0.01392963      0.03348179
 H      0.08620455      0.09194992      0.47598206      0.00884651      0.00793957      0.00159698
    2
 MD step:        3250 time   7.8613740611412499     
 H     -0.08407842     -0.14001312     -0.20046900     -0.00879038     -0.01414159      0.03252991
 H      0.08729614      0.09292300      0.47623630      0.00919969      0.00815153      0.00254886
    2
 MD step:        3300 time   7.9823182774665007     
 H     -0.08514732     -0.14173222     -0.19655950     -0.00892781     -0.01429684      0.03208031
 H      0.08841454      0.09391764      0.47656938      0.00933712      0.00830678      0.00299846
    2
 MD step:        3350 time   8.1032624937917497     
 H     -0.08625436     -0.14347537     -0.19272141     -0.00930938     -0.01453949      0.03137201
 H      0.08957109      0.09493632      0.47697386      0.00971868      0.00854943      0.00370676
    2
 MD step:        3400 time   8.2242067101170004     
 H     -0.08737808     -0.14524857     -0.18897374     -0.00931745     -0.01478005      0.03062549
 H      0.09074431      0.09598507      0.47746876      0.00972676      0.00878999      0.00445328
    2
 MD step:        3450 time   8.3451509264422494     
 H     -0.08851794     -0.14705047     -0.18530715     -0.00950918     -0.01504507      0.02985285
 H      0.09193368      0.09706250      0.47804475      0.00991848      0.00905501      0.00522592
    2
 MD step:        3500 time   8.4660951427675002     
 H     -0.08967858     -0.14889087     -0.18177703     -0.00970039     -0.01537047      0.02865037
 H      0.09314382      0.09817843      0.47875721      0.01010969      0.00938041      0.00642839
    2
 MD step:        3550 time   8.5870393590927510     
 H     -0.09086529     -0.15076557     -0.17835703     -0.00999819     -0.01566335      0.02774311
 H      0.09438003      0.09932868      0.47957978      0.01040749      0.00967329      0.00733566
    2
 MD step:        3600 time   8.7079835754179999     
 H     -0.09210732     -0.15268287     -0.17507777     -0.01045065     -0.01602283      0.02662134
 H      0.09567157      0.10052151      0.48054309      0.01085996      0.01003277      0.00845743
    2
 MD step:        3650 time   8.8289277917432507     
 H     -0.09338289     -0.15463840     -0.17190237     -0.01074123     -0.01632918      0.02584591
 H      0.09699664      0.10175258      0.48161026      0.01115053      0.01033911      0.00923285
    2
 MD step:        3700 time   8.9498720080684997     
 H     -0.09470670     -0.15663472     -0.16882982     -0.01103121     -0.01668674      0.02491591
 H      0.09836995      0.10302443      0.48278029      0.01144052      0.01069667      0.01016285
    2
 MD step:        3750 time   9.0708162243937505     
 H     -0.09604547     -0.15867300     -0.16587474     -0.01116571     -0.01700260      0.02405579
 H      0.09975822      0.10433825      0.48406778      0.01157502      0.01101253      0.01102298
    2
 MD step:        3800 time   9.1917604407189994     
 H     -0.09740975     -0.16074913     -0.16302012     -0.01140181     -0.01735647      0.02296615
 H      0.10117200      0.10568991      0.48545574      0.01181112      0.01136641      0.01211261
    2
 MD step:        3850 time   9.3127046570442502     
 H     -0.09880633     -0.16286957     -0.16031239     -0.01165741     -0.01767083      0.02200864
 H      0.10261809      0.10708589      0.48699058      0.01206671      0.01168077      0.01307012
    2
 MD step:        3900 time   9.4336488733695010     
 H     -0.10023696     -0.16502445     -0.15770082     -0.01209648     -0.01798790      0.02106573
 H      0.10409823      0.10851631      0.48862159      0.01250579      0.01199784      0.01401304
    2
 MD step:        3950 time   9.5545930896947500     
 H     -0.10172379     -0.16721917     -0.15520387     -0.01236493     -0.01827432      0.02034440
 H      0.10563456      0.10998656      0.49036721      0.01277424      0.01228426      0.01473437
    2
 MD step:        4000 time   9.6755373060200007     
 H     -0.10323298     -0.16944337     -0.15277466     -0.01266256     -0.01850767      0.01984252
 H      0.10719325      0.11148630      0.49218058      0.01307187      0.01251761      0.01523625
    2
 MD step:        4050 time   9.7964815223452497     
 H     -0.10477323     -0.17169758     -0.15041447     -0.01272770     -0.01876365      0.01912906
 H      0.10878300      0.11301605      0.49406296      0.01313701      0.01277359      0.01594971
    2
 MD step:        4100 time   9.9174257386705005     
 H     -0.10631571     -0.17397750     -0.14813146     -0.01279842     -0.01891475      0.01873526
 H      0.11037499      0.11457150      0.49602253      0.01320773      0.01292469      0.01634351
    2
 MD step:        4150 time   10.038369954995749     
 H     -0.10787351     -0.17627703     -0.14590812     -0.01300125     -0.01912324      0.01792730
 H      0.11198229      0.11614658      0.49804176      0.01341056      0.01313318      0.01715146
    2
 MD step:        4200 time   10.159314171321000     
 H     -0.10945588     -0.17859711     -0.14376653     -0.01310823     -0.01920676      0.01763925
 H      0.11361416      0.11774219      0.50014274      0.01351754      0.01321670      0.01743952
    2
 MD step:        4250 time   10.280258387646251     
 H     -0.11105805     -0.18092531     -0.14165204     -0.01345353     -0.01930228      0.01729892
 H      0.11526584      0.11934593      0.50227082      0.01386284      0.01331221      0.01777985
    2
 MD step:        4300 time   10.401202603971500     
 H     -0.11269042     -0.18326295     -0.13956800     -0.01343033     -0.01932722      0.01722330
 H      0.11694771      0.12095911      0.50442935      0.01383964      0.01333716      0.01785547
    2
 MD step:        4350 time   10.522146820296751     
 H     -0.11431450     -0.18559804     -0.13747828     -0.01346465     -0.01927798      0.01737966
 H      0.11862130      0.12256973      0.50658221      0.01387396      0.01328792      0.01769911
    2
 MD step:        4400 time   10.643091036622000     
 H     -0.11593646     -0.18792820     -0.13538216     -0.01331998     -0.01925324      0.01720038
 H      0.12029276      0.12417542      0.50872867      0.01372929      0.01326318      0.01787838
    2
 MD step:        4450 time   10.764035252947250     
 H     -0.11753922     -0.19024963     -0.13329790     -0.01317802     -0.01910211      0.01740203
 H      0.12194502      0.12577239      0.51088698      0.01358733      0.01311205      0.01767674
    2
 MD step:        4500 time   10.884979469272501     
 H     -0.11913302     -0.19255197     -0.13119181     -0.01324548     -0.01898665      0.01732695
 H      0.12358832      0.12735027      0.51302346      0.01365478      0.01299659      0.01775181
    2
 MD step:        4550 time   11.005923685597750     
 H     -0.12073616     -0.19483793     -0.12908551     -0.01316494     -0.01877392      0.01765686
 H      0.12524097      0.12891177      0.51515974      0.01357425      0.01278385      0.01742190
    2
 MD step:        4600 time   11.126867901923001     
 H     -0.12232337     -0.19709221     -0.12691865     -0.01316458     -0.01851175      0.01815995
 H      0.12687768      0.13044158      0.51723545      0.01357389      0.01252169      0.01691882
    2
 MD step:        4650 time   11.247812118248250     
 H     -0.12390903     -0.19931584     -0.12469250     -0.01293472     -0.01824460      0.01864226
 H      0.12851285      0.13194075      0.51925188      0.01334403      0.01225454      0.01643651
    2
 MD step:        4700 time   11.368756334573501     
 H     -0.12544933     -0.20150130     -0.12240300     -0.01258216     -0.01787509      0.01931055
 H      0.13010265      0.13340175      0.52120495      0.01299147      0.01188503      0.01576822
    2
 MD step:        4750 time   11.489700550898750     
 H     -0.12695332     -0.20364070     -0.12002950     -0.01229299     -0.01752564      0.01978184
 H      0.13165615      0.13481669      0.52307403      0.01270230      0.01153558      0.01529692
    2
 MD step:        4800 time   11.610644767224001     
 H     -0.12842623     -0.20573869     -0.11761870     -0.01203429     -0.01713079      0.02025047
 H      0.13317856      0.13619021      0.52490580      0.01244360      0.01114073      0.01482830
    2
 MD step:        4850 time   11.731588983549251     
 H     -0.12986253     -0.20778070     -0.11511717     -0.01180629     -0.01666316      0.02101312
 H      0.13466436      0.13750775      0.52664684      0.01221560      0.01067310      0.01406564
    2
 MD step:        4900 time   11.852533199874500     
 H     -0.13129085     -0.20977088     -0.11253894     -0.01171460     -0.01623141      0.02170069
 H      0.13614219      0.13877348      0.52831118      0.01212391      0.01024134      0.01337807
    2
 MD step:        4950 time   11.973477416199751     
 H     -0.13267563     -0.21170131     -0.10985476     -0.01123344     -0.01569090      0.02269123
 H      0.13757646      0.13997944      0.52986957      0.01164275      0.00970084      0.01238754
    2
 MD step:        5000 time   12.094421632525000     
 H     -0.13401725     -0.21356606     -0.10704580     -0.01090470     -0.01515971      0.02369101
 H      0.13896759      0.14111973      0.53130319      0.01131401      0.00916965      0.01138775
    2
 MD step:        5050 time   12.215365848850251     
 H     -0.13530261     -0.21536922     -0.10414481     -0.01036849     -0.01464607      0.02430642
 H      0.14030245      0.14219842      0.53264478      0.01077780      0.00865601      0.01077235
    2
 MD step:        5100 time   12.336310065175500     
 H     -0.13652729     -0.21710277     -0.10114090     -0.00989801     -0.01402526      0.02534442
 H      0.14157664      0.14320751      0.53388344      0.01030732      0.00803520      0.00973435
    2
 MD step:        5150 time   12.457254281500751     
 H     -0.13771243     -0.21876809     -0.09804283     -0.00973397     -0.01351706      0.02588506
 H      0.14281128      0.14414837      0.53502794      0.01014328      0.00752700      0.00919370
    2
 MD step:        5200 time   12.578198497826001     
 H     -0.13886557     -0.22036646     -0.09485248     -0.00927672     -0.01289092      0.02694228
 H      0.14401392      0.14502228      0.53608017      0.00968603      0.00690085      0.00813649
    2
 MD step:        5250 time   12.699142714151250     
 H     -0.13997165     -0.22188905     -0.09153163     -0.00906170     -0.01229729      0.02797028
 H      0.14516951      0.14582040      0.53700189      0.00947100      0.00630723      0.00710849
    2
 MD step:        5300 time   12.820086930476501     
 H     -0.14104032     -0.22334254     -0.08809295     -0.00851975     -0.01172730      0.02885933
 H      0.14628768      0.14654943      0.53780579      0.00892906      0.00573724      0.00621944
    2
 MD step:        5350 time   12.941031146801750     
 H     -0.14203605     -0.22472338     -0.08454495     -0.00797983     -0.01109212      0.02989176
 H      0.14733291      0.14720580      0.53850036      0.00838914      0.00510206      0.00518701
    2
 MD step:        5400 time   13.061975363127001     
 H     -0.14297365     -0.22603000     -0.08087999     -0.00755679     -0.01054348      0.03055718
 H      0.14832002      0.14778796      0.53907797      0.00796610      0.00455342      0.00452158
    2
 MD step:        5450 time   13.182919579452250     
 H     -0.14386837     -0.22727304     -0.07715165     -0.00719375     -0.00997972      0.03124652
 H      0.14926424      0.14830654      0.53959221      0.00760306      0.00398966      0.00383225
    2
 MD step:        5500 time   13.303863795777501     
 H     -0.14471389     -0.22844290     -0.07331486     -0.00689288     -0.00940027      0.03210130
 H      0.15015927      0.14875193      0.53999800      0.00730219      0.00341021      0.00297747
    2
 MD step:        5550 time   13.424808012102751     
 H     -0.14554344     -0.22955025     -0.06939041     -0.00671911     -0.00890411      0.03283994
 H      0.15103832      0.14913482      0.54031612      0.00712842      0.00291405      0.00223883
    2
 MD step:        5600 time   13.545752228428000     
 H     -0.14632156     -0.23059345     -0.06536612     -0.00620878     -0.00835406      0.03370987
 H      0.15186594      0.14945356      0.54053440      0.00661809      0.00236399      0.00136889
    2
 MD step:        5650 time   13.666696444753251     
 H     -0.14705426     -0.23157259     -0.06123454     -0.00587348     -0.00786483      0.03450867
 H      0.15264815      0.14970824      0.54064539      0.00628279      0.00187477      0.00057009
    2
 MD step:        5700 time   13.787640661078500     
 H     -0.14773778     -0.23249918     -0.05704322     -0.00545522     -0.00745115      0.03483771
 H      0.15338117      0.14991035      0.54069665      0.00586453      0.00146109      0.00024105
    2
 MD step:        5750 time   13.908584877403751     
 H     -0.14837442     -0.23337049     -0.05278529     -0.00510969     -0.00698077      0.03550435
 H      0.15406731      0.15005721      0.54068130      0.00551900      0.00099071     -0.00042558
    2
 MD step:        5800 time   14.029529093729000     
 H     -0.14899345     -0.23419634     -0.04848299     -0.00513810     -0.00668250      0.03566456